REMARK SMILES CC1(C)CC[C@]2(C(=O)O)CC[C@]3(C)C(=CC[C@@H]4[C@@]5(C)C[C@@H](O)[C@H](O)C(C)(C)[C@@H]5CC[C@]43C)[C@@H]2C1
REMARK SMILES IDX 21 1 20 2 18 3 19 4 28 5 25 6 23 7 26 8 27 9 29 10 30 11
REMARK SMILES IDX 31 12 17 13 16 14 15 15 14 16 12 17 13 18 11 19 10 20 6 21
REMARK SMILES IDX 33 22 34 23 2 24 1 25 3 26 4 27 5 28 32 29 22 30 24 32 7 34
REMARK SMILES IDX 8 35 9 36
REMARK H PARENT 22 31 24 33 9 37
ROOT
ATOM      1  C   UNL     1      -4.714  -0.201   2.349  1.00  0.00     0.144 C 
ATOM      2  C   UNL     1      -3.218  -0.378   2.100  1.00  0.00     0.042 C 
ATOM      3  C   UNL     1      -2.828  -0.452   0.593  1.00  0.00    -0.023 C 
ATOM      4  C   UNL     1      -3.349  -1.805   0.046  1.00  0.00     0.012 C 
ATOM      5  C   UNL     1      -3.461   0.793  -0.134  1.00  0.00     0.004 C 
ATOM      6  C   UNL     1      -5.004   1.026   0.088  1.00  0.00    -0.003 C 
ATOM      7  C   UNL     1      -5.283   1.023   1.620  1.00  0.00     0.149 C 
ATOM      8  C   UNL     1      -5.398   2.428  -0.457  1.00  0.00     0.014 C 
ATOM      9  C   UNL     1      -5.903   0.016  -0.651  1.00  0.00     0.014 C 
ATOM     10  C   UNL     1      -2.995   0.856  -1.604  1.00  0.00     0.005 C 
ATOM     11  C   UNL     1      -1.478   1.047  -1.680  1.00  0.00     0.008 C 
ATOM     12  C   UNL     1      -0.642  -0.048  -0.960  1.00  0.00    -0.020 C 
ATOM     13  C   UNL     1      -1.241  -0.311   0.476  1.00  0.00     0.006 C 
ATOM     14  C   UNL     1      -0.445  -1.409   1.212  1.00  0.00     0.032 C 
ATOM     15  C   UNL     1       1.036  -1.351   0.994  1.00  0.00    -0.027 C 
ATOM     16  C   UNL     1       1.684  -0.557   0.118  1.00  0.00    -0.063 C 
ATOM     17  C   UNL     1       0.921   0.414  -0.799  1.00  0.00    -0.006 C 
ATOM     18  C   UNL     1       1.032   1.828  -0.156  1.00  0.00     0.017 C 
ATOM     19  C   UNL     1       1.615   0.481  -2.190  1.00  0.00     0.013 C 
ATOM     20  C   UNL     1       3.130   0.675  -2.129  1.00  0.00     0.020 C 
ATOM     21  C   UNL     1       3.836  -0.473  -1.373  1.00  0.00     0.074 C 
ATOM     22  C   UNL     1       3.213  -0.666   0.044  1.00  0.00     0.033 C 
ATOM     23  C   UNL     1       3.918   0.238   1.078  1.00  0.00     0.015 C 
ATOM     24  C   UNL     1       5.410  -0.153   1.268  1.00  0.00    -0.035 C 
ATOM     25  C   UNL     1       6.197   1.099   1.702  1.00  0.00     0.011 C 
ATOM     26  C   UNL     1       5.542  -1.206   2.385  1.00  0.00     0.011 C 
ATOM     27  C   UNL     1       6.010  -0.731  -0.038  1.00  0.00     0.007 C 
ATOM     28  C   UNL     1       5.354  -0.136  -1.284  1.00  0.00     0.020 C 
ATOM     29  C   UNL     1      -0.719  -1.336  -1.835  1.00  0.00     0.012 C 
ENDROOT
BRANCH   1  30
ATOM     30  O   UNL     1      -4.920  -0.028   3.758  1.00  0.00    -0.390 OA
ATOM     31  H   UNL     1      -5.866   0.204   3.842  1.00  0.00     0.211 HD
ENDBRANCH   1  30
BRANCH   7  32
ATOM     32  O   UNL     1      -6.688   1.067   1.915  1.00  0.00    -0.390 OA
ATOM     33  H   UNL     1      -7.013   1.949   1.668  1.00  0.00     0.211 HD
ENDBRANCH   7  32
BRANCH  21  34
ATOM     34  C   UNL     1       3.731  -1.794  -2.149  1.00  0.00     0.310 C 
ATOM     35  O   UNL     1       3.662  -2.920  -1.682  1.00  0.00    -0.252 OA
BRANCH  34  36
ATOM     36  O   UNL     1       3.803  -1.649  -3.488  1.00  0.00    -0.481 OA
ATOM     37  H   UNL     1       3.756  -2.569  -3.821  1.00  0.00     0.296 HD
ENDBRANCH  34  36
ENDBRANCH  21  34
TORSDOF 4
