REMARK SMILES COc1cc(O)c(CC=C(C)C)c2c1C(=O)C[C@@H](c1ccccc1)O2
REMARK SMILES IDX 3 1 4 2 5 3 7 4 13 5 14 6 15 7 16 8 17 9 18 10 25 11 2 12
REMARK SMILES IDX 1 13 6 14 8 16 9 17 10 18 11 19 12 20 19 21 20 22 24 23
REMARK SMILES IDX 21 24 23 25 22 26
REMARK H PARENT 6 15
ROOT
ATOM      1  C   UNL     1       0.388   3.563   0.384  1.00  0.00     0.137 A 
ATOM      2  C   UNL     1       0.470   3.556   1.778  1.00  0.00     0.093 A 
ATOM      3  C   UNL     1       0.625   2.349   2.456  1.00  0.00     0.126 A 
ATOM      4  C   UNL     1       0.721   1.134   1.765  1.00  0.00     0.041 A 
ATOM      5  C   UNL     1       0.642   1.157   0.358  1.00  0.00     0.142 A 
ATOM      6  C   UNL     1       0.493   2.368  -0.338  1.00  0.00     0.102 A 
ATOM      7  C   UNL     1       0.477   2.323  -1.825  1.00  0.00     0.174 C 
ATOM      8  O   UNL     1       0.248   3.308  -2.518  1.00  0.00    -0.294 OA
ATOM      9  C   UNL     1       0.786   0.995  -2.455  1.00  0.00     0.131 C 
ATOM     10  C   UNL     1       0.161  -0.077  -1.584  1.00  0.00     0.211 C 
ATOM     11  O   UNL     1       0.756  -0.055  -0.281  1.00  0.00    -0.484 OA
ENDROOT
BRANCH   1  12
ATOM     12  O   UNL     1       0.303   4.788  -0.222  1.00  0.00    -0.496 OA
ATOM     13  C   UNL     1      -1.064   5.164  -0.403  1.00  0.00     0.278 C 
ENDBRANCH   1  12
BRANCH   3  14
ATOM     14  O   UNL     1       0.688   2.344   3.822  1.00  0.00    -0.507 OA
ATOM     15  H   UNL     1       0.650   3.258   4.150  1.00  0.00     0.293 HD
ENDBRANCH   3  14
BRANCH   4  16
ATOM     16  C   UNL     1       0.857  -0.177   2.515  1.00  0.00     0.070 C 
BRANCH  16  17
ATOM     17  C   UNL     1      -0.483  -0.794   2.823  1.00  0.00    -0.023 C 
ATOM     18  C   UNL     1      -1.005  -1.946   2.357  1.00  0.00    -0.080 C 
ATOM     19  C   UNL     1      -2.374  -2.397   2.794  1.00  0.00     0.039 C 
ATOM     20  C   UNL     1      -0.332  -2.879   1.388  1.00  0.00     0.039 C 
ENDBRANCH  16  17
ENDBRANCH   4  16
BRANCH  10  21
ATOM     21  C   UNL     1       0.367  -1.454  -2.187  1.00  0.00    -0.007 A 
ATOM     22  C   UNL     1      -0.673  -2.069  -2.901  1.00  0.00     0.007 A 
ATOM     23  C   UNL     1       1.594  -2.127  -2.072  1.00  0.00     0.007 A 
ATOM     24  C   UNL     1      -0.493  -3.330  -3.474  1.00  0.00     0.000 A 
ATOM     25  C   UNL     1       1.771  -3.387  -2.645  1.00  0.00     0.000 A 
ATOM     26  C   UNL     1       0.728  -3.988  -3.345  1.00  0.00     0.000 A 
ENDBRANCH  10  21
TORSDOF 5
