REMARK SMILES COc1cc(OC)c2c(c1/C=C/C(C)(C)O)OC(c1ccccc1)CC2=O
REMARK SMILES IDX 11 1 12 2 10 3 3 4 4 5 5 6 9 7 8 8 17 9 26 10 18 11 25 12
REMARK SMILES IDX 27 13 2 14 1 15 6 16 7 17 19 18 20 19 24 20 21 21 23 22
REMARK SMILES IDX 22 23 13 24 14 25 15 26 16 27
REMARK H PARENT 16 28
ROOT
ATOM      1  C   UNL     1      -1.371   0.447   1.024  1.00  0.00     0.014 C 
ATOM      2  C   UNL     1      -2.566   0.850   0.562  1.00  0.00     0.008 C 
ENDROOT
BRANCH   1   3
ATOM      3  C   UNL     1      -0.808  -0.884   0.722  1.00  0.00     0.059 A 
ATOM      4  C   UNL     1      -1.449  -2.073   1.134  1.00  0.00     0.133 A 
ATOM      5  C   UNL     1      -0.867  -3.306   0.827  1.00  0.00     0.094 A 
ATOM      6  C   UNL     1       0.326  -3.370   0.097  1.00  0.00     0.137 A 
ATOM      7  C   UNL     1       0.427  -0.961   0.043  1.00  0.00     0.145 A 
ATOM      8  C   UNL     1       0.987  -2.201  -0.294  1.00  0.00     0.103 A 
ATOM      9  O   UNL     1       1.030   0.232  -0.291  1.00  0.00    -0.484 OA
ATOM     10  C   UNL     1       2.243  -2.211  -1.092  1.00  0.00     0.174 C 
ATOM     11  C   UNL     1       2.455   0.128  -0.404  1.00  0.00     0.211 C 
ATOM     12  C   UNL     1       2.809  -0.875  -1.484  1.00  0.00     0.131 C 
ATOM     13  O   UNL     1       2.771  -3.249  -1.479  1.00  0.00    -0.294 OA
BRANCH   4  14
ATOM     14  O   UNL     1      -2.612  -1.929   1.848  1.00  0.00    -0.496 OA
ATOM     15  C   UNL     1      -3.311  -3.109   2.225  1.00  0.00     0.278 C 
ENDBRANCH   4  14
BRANCH   6  16
ATOM     16  O   UNL     1       0.849  -4.616  -0.124  1.00  0.00    -0.496 OA
ATOM     17  C   UNL     1       0.330  -5.173  -1.333  1.00  0.00     0.278 C 
ENDBRANCH   6  16
BRANCH  11  18
ATOM     18  C   UNL     1       3.026   1.495  -0.732  1.00  0.00    -0.007 A 
ATOM     19  C   UNL     1       2.354   2.388  -1.581  1.00  0.00     0.007 A 
ATOM     20  C   UNL     1       4.273   1.875  -0.209  1.00  0.00     0.007 A 
ATOM     21  C   UNL     1       2.907   3.632  -1.889  1.00  0.00     0.000 A 
ATOM     22  C   UNL     1       4.825   3.120  -0.518  1.00  0.00     0.000 A 
ATOM     23  C   UNL     1       4.142   3.997  -1.357  1.00  0.00     0.000 A 
ENDBRANCH  11  18
ENDBRANCH   1   3
BRANCH   2  24
ATOM     24  C   UNL     1      -3.233   2.184   0.793  1.00  0.00     0.077 C 
ATOM     25  C   UNL     1      -2.494   3.137   1.738  1.00  0.00     0.046 C 
ATOM     26  C   UNL     1      -3.488   2.878  -0.546  1.00  0.00     0.046 C 
BRANCH  24  27
ATOM     27  O   UNL     1      -4.506   1.904   1.379  1.00  0.00    -0.386 OA
ATOM     28  H   UNL     1      -4.342   1.314   2.135  1.00  0.00     0.211 HD
ENDBRANCH  24  27
ENDBRANCH   2  24
TORSDOF 6
