REMARK SMILES COc1ccc([C@@H]2CC(=O)c3c(O)c4c(c(CC=C(C)C)c3O2)OC(C)(C)C=C4)cc1
REMARK SMILES IDX 7 1 8 2 9 3 10 4 11 5 22 6 23 7 16 8 15 9 14 10 12 11 29 12
REMARK SMILES IDX 28 13 25 14 24 15 26 16 27 17 6 18 3 19 4 20 31 21 5 22
REMARK SMILES IDX 30 23 2 24 1 25 17 26 18 27 19 28 20 29 21 30 13 31
REMARK H PARENT 13 32
ROOT
ATOM      1  C   UNL     1       2.323  -1.410   0.246  1.00  0.00     0.211 C 
ATOM      2  C   UNL     1       2.103  -2.755  -0.424  1.00  0.00     0.131 C 
ATOM      3  C   UNL     1       0.834  -3.336   0.124  1.00  0.00     0.174 C 
ATOM      4  O   UNL     1       0.650  -4.547   0.230  1.00  0.00    -0.294 OA
ATOM      5  C   UNL     1      -0.243  -2.391   0.486  1.00  0.00     0.103 A 
ATOM      6  C   UNL     1       0.009  -1.020   0.371  1.00  0.00     0.142 A 
ATOM      7  O   UNL     1       1.226  -0.528  -0.034  1.00  0.00    -0.484 OA
ATOM      8  C   UNL     1      -1.006  -0.083   0.638  1.00  0.00     0.042 A 
ATOM      9  C   UNL     1      -2.276  -0.555   1.033  1.00  0.00     0.138 A 
ATOM     10  C   UNL     1      -2.524  -1.929   1.182  1.00  0.00     0.060 A 
ATOM     11  C   UNL     1      -1.500  -2.846   0.903  1.00  0.00     0.141 A 
ATOM     12  C   UNL     1      -3.839  -2.372   1.635  1.00  0.00     0.015 C 
ATOM     13  C   UNL     1      -4.812  -1.464   1.747  1.00  0.00     0.021 C 
ATOM     14  C   UNL     1      -4.604  -0.004   1.435  1.00  0.00     0.122 C 
ATOM     15  O   UNL     1      -3.227   0.397   1.298  1.00  0.00    -0.483 OA
ATOM     16  C   UNL     1      -5.322   0.353   0.128  1.00  0.00     0.061 C 
ATOM     17  C   UNL     1      -5.170   0.843   2.581  1.00  0.00     0.061 C 
ENDROOT
BRANCH   1  18
ATOM     18  C   UNL     1       3.606  -0.770  -0.250  1.00  0.00    -0.007 A 
ATOM     19  C   UNL     1       6.024   0.362  -1.167  1.00  0.00     0.118 A 
ATOM     20  C   UNL     1       4.851   0.495  -1.910  1.00  0.00     0.047 A 
ATOM     21  C   UNL     1       5.990  -0.343   0.036  1.00  0.00     0.047 A 
ATOM     22  C   UNL     1       3.652  -0.065  -1.461  1.00  0.00     0.011 A 
ATOM     23  C   UNL     1       4.791  -0.906   0.490  1.00  0.00     0.011 A 
BRANCH  19  24
ATOM     24  O   UNL     1       7.123   0.957  -1.721  1.00  0.00    -0.497 OA
ATOM     25  C   UNL     1       8.341   0.864  -0.993  1.00  0.00     0.278 C 
ENDBRANCH  19  24
ENDBRANCH   1  18
BRANCH   8  26
ATOM     26  C   UNL     1      -0.745   1.403   0.480  1.00  0.00     0.070 C 
BRANCH  26  27
ATOM     27  C   UNL     1      -0.954   1.874  -0.936  1.00  0.00    -0.023 C 
ATOM     28  C   UNL     1      -1.844   2.774  -1.398  1.00  0.00    -0.080 C 
ATOM     29  C   UNL     1      -1.881   3.131  -2.862  1.00  0.00     0.039 C 
ATOM     30  C   UNL     1      -2.861   3.501  -0.563  1.00  0.00     0.039 C 
ENDBRANCH  26  27
ENDBRANCH   8  26
BRANCH  11  31
ATOM     31  O   UNL     1      -1.770  -4.188   1.039  1.00  0.00    -0.506 OA
ATOM     32  H   UNL     1      -0.971  -4.699   0.780  1.00  0.00     0.293 HD
ENDBRANCH  11  31
TORSDOF 5
