REMARK SMILES COc1c(O)cc2oc(-c3ccc(O)c(O)c3)c(OC)c(=O)c2c1O
REMARK SMILES IDX 3 1 4 2 6 3 7 4 23 5 24 6 21 7 22 8 18 9 9 10 8 11 2 12 1 13
REMARK SMILES IDX 5 14 25 16 19 18 20 19 10 20 11 21 17 22 12 23 15 24 13 25
REMARK SMILES IDX 16 26 14 28
REMARK H PARENT 5 15 25 17 16 27 14 29
ROOT
ATOM      1  C   UNL     1       3.890  -0.124   0.813  1.00  0.00     0.203 A 
ATOM      2  C   UNL     1       3.377  -1.363   1.184  1.00  0.00     0.165 A 
ATOM      3  C   UNL     1       2.029  -1.639   1.019  1.00  0.00     0.098 A 
ATOM      4  C   UNL     1       1.184  -0.653   0.499  1.00  0.00     0.146 A 
ATOM      5  C   UNL     1       1.675   0.607   0.149  1.00  0.00     0.115 A 
ATOM      6  C   UNL     1       3.038   0.875   0.329  1.00  0.00     0.177 A 
ATOM      7  C   UNL     1       0.719   1.596  -0.398  1.00  0.00     0.239 C 
ATOM      8  O   UNL     1       1.081   2.679  -0.841  1.00  0.00    -0.285 OA
ATOM      9  C   UNL     1      -0.727   1.204  -0.407  1.00  0.00     0.210 C 
ATOM     10  C   UNL     1      -1.042  -0.058  -0.056  1.00  0.00     0.180 C 
ATOM     11  O   UNL     1      -0.133  -1.007   0.371  1.00  0.00    -0.452 OA
ENDROOT
BRANCH   1  12
ATOM     12  O   UNL     1       5.230   0.135   0.974  1.00  0.00    -0.490 OA
ATOM     13  C   UNL     1       5.935  -0.212  -0.225  1.00  0.00     0.278 C 
ENDBRANCH   1  12
BRANCH   2  14
ATOM     14  O   UNL     1       4.179  -2.325   1.725  1.00  0.00    -0.504 OA
ATOM     15  H   UNL     1       5.039  -1.901   1.907  1.00  0.00     0.293 HD
ENDBRANCH   2  14
BRANCH   6  16
ATOM     16  O   UNL     1       3.572   2.106   0.061  1.00  0.00    -0.504 OA
ATOM     17  H   UNL     1       4.481   2.116   0.410  1.00  0.00     0.293 HD
ENDBRANCH   6  16
BRANCH   9  18
ATOM     18  O   UNL     1      -1.706   2.100  -0.819  1.00  0.00    -0.490 OA
ATOM     19  C   UNL     1      -1.597   3.391  -0.225  1.00  0.00     0.278 C 
ENDBRANCH   9  18
BRANCH  10  20
ATOM     20  C   UNL     1      -2.431  -0.569  -0.063  1.00  0.00     0.025 A 
ATOM     21  C   UNL     1      -2.938  -1.218   1.079  1.00  0.00     0.016 A 
ATOM     22  C   UNL     1      -3.247  -0.454  -1.201  1.00  0.00     0.062 A 
ATOM     23  C   UNL     1      -4.239  -1.728   1.094  1.00  0.00     0.051 A 
ATOM     24  C   UNL     1      -4.542  -0.961  -1.175  1.00  0.00     0.158 A 
ATOM     25  C   UNL     1      -5.030  -1.593  -0.035  1.00  0.00     0.157 A 
BRANCH  24  26
ATOM     26  O   UNL     1      -5.377  -0.863  -2.254  1.00  0.00    -0.504 OA
ATOM     27  H   UNL     1      -4.913  -0.366  -2.950  1.00  0.00     0.293 HD
ENDBRANCH  24  26
BRANCH  25  28
ATOM     28  O   UNL     1      -6.302  -2.090  -0.023  1.00  0.00    -0.504 OA
ATOM     29  H   UNL     1      -6.654  -1.881  -0.911  1.00  0.00     0.293 HD
ENDBRANCH  25  28
ENDBRANCH  10  20
TORSDOF 7
