REMARK SMILES COc1cc(-c2oc3cc(O)c(OC)c(O)c3c(=O)c2OC)ccc1O
REMARK SMILES IDX 6 1 7 2 8 3 9 4 10 5 12 6 15 7 17 8 18 9 19 10 20 11 5 12
REMARK SMILES IDX 3 13 4 14 25 15 24 16 23 17 2 18 1 19 26 20 21 22 22 23
REMARK SMILES IDX 11 24 16 26 13 28 14 29
REMARK H PARENT 26 21 11 25 16 27
ROOT
ATOM      1  C   UNL     1       0.620   0.737  -0.088  1.00  0.00     0.180 C 
ATOM      2  O   UNL     1       0.354  -0.298   0.792  1.00  0.00    -0.452 OA
ATOM      3  C   UNL     1      -0.947  -0.577   1.112  1.00  0.00     0.146 A 
ATOM      4  C   UNL     1      -1.157  -1.626   2.000  1.00  0.00     0.098 A 
ATOM      5  C   UNL     1      -2.458  -1.952   2.361  1.00  0.00     0.165 A 
ATOM      6  C   UNL     1      -3.573  -1.259   1.862  1.00  0.00     0.203 A 
ATOM      7  C   UNL     1      -3.350  -0.205   0.966  1.00  0.00     0.177 A 
ATOM      8  C   UNL     1      -2.029   0.130   0.595  1.00  0.00     0.115 A 
ATOM      9  C   UNL     1      -1.745   1.225  -0.348  1.00  0.00     0.239 C 
ATOM     10  O   UNL     1      -2.680   1.875  -0.809  1.00  0.00    -0.285 OA
ATOM     11  C   UNL     1      -0.318   1.490  -0.695  1.00  0.00     0.210 C 
ENDROOT
BRANCH   1  12
ATOM     12  C   UNL     1       2.069   0.913  -0.330  1.00  0.00     0.025 A 
ATOM     13  C   UNL     1       4.227  -0.063  -0.899  1.00  0.00     0.161 A 
ATOM     14  C   UNL     1       2.854  -0.201  -0.686  1.00  0.00     0.062 A 
ATOM     15  C   UNL     1       4.809   1.200  -0.749  1.00  0.00     0.157 A 
ATOM     16  C   UNL     1       4.057   2.309  -0.390  1.00  0.00     0.051 A 
ATOM     17  C   UNL     1       2.687   2.164  -0.176  1.00  0.00     0.016 A 
BRANCH  13  18
ATOM     18  O   UNL     1       5.097  -1.063  -1.252  1.00  0.00    -0.493 OA
ATOM     19  C   UNL     1       4.549  -2.370  -1.383  1.00  0.00     0.278 C 
ENDBRANCH  13  18
BRANCH  15  20
ATOM     20  O   UNL     1       6.152   1.367  -0.952  1.00  0.00    -0.504 OA
ATOM     21  H   UNL     1       6.484   0.479  -1.188  1.00  0.00     0.293 HD
ENDBRANCH  15  20
ENDBRANCH   1  12
BRANCH  11  22
ATOM     22  O   UNL     1       0.025   2.504  -1.576  1.00  0.00    -0.490 OA
ATOM     23  C   UNL     1      -0.708   2.488  -2.798  1.00  0.00     0.278 C 
ENDBRANCH  11  22
BRANCH   5  24
ATOM     24  O   UNL     1      -2.632  -2.992   3.236  1.00  0.00    -0.504 OA
ATOM     25  H   UNL     1      -3.600  -3.057   3.364  1.00  0.00     0.293 HD
ENDBRANCH   5  24
BRANCH   7  26
ATOM     26  O   UNL     1      -4.414   0.494   0.452  1.00  0.00    -0.504 OA
ATOM     27  H   UNL     1      -4.076   1.206  -0.138  1.00  0.00     0.293 HD
ENDBRANCH   7  26
BRANCH   6  28
ATOM     28  O   UNL     1      -4.762  -1.742   2.346  1.00  0.00    -0.490 OA
ATOM     29  C   UNL     1      -5.964  -1.093   1.957  1.00  0.00     0.278 C 
ENDBRANCH   6  28
TORSDOF 7
