REMARK SMILES COc1cc(O)c2c(c1)OC(c1ccc(O)c(O)c1)CC2=O
REMARK SMILES IDX 3 1 9 2 8 3 10 4 11 5 20 6 21 7 22 8 7 9 5 10 4 11 2 12 1 13
REMARK SMILES IDX 6 14 12 16 13 17 19 18 14 19 17 20 15 21 18 22 16 24
REMARK H PARENT 6 15 18 23 16 25
ROOT
ATOM      1  C   UNL     1      -2.795   0.459  -1.181  1.00  0.00     0.126 A 
ATOM      2  C   UNL     1      -1.687  -0.248  -1.649  1.00  0.00     0.093 A 
ATOM      3  C   UNL     1      -0.910  -1.014  -0.778  1.00  0.00     0.138 A 
ATOM      4  O   UNL     1       0.165  -1.647  -1.349  1.00  0.00    -0.484 OA
ATOM      5  C   UNL     1       1.220  -1.961  -0.421  1.00  0.00     0.211 C 
ATOM      6  C   UNL     1       0.663  -2.772   0.738  1.00  0.00     0.131 C 
ATOM      7  C   UNL     1      -0.431  -2.006   1.430  1.00  0.00     0.174 C 
ATOM      8  O   UNL     1      -0.647  -2.182   2.625  1.00  0.00    -0.294 OA
ATOM      9  C   UNL     1      -1.251  -1.111   0.574  1.00  0.00     0.102 A 
ATOM     10  C   UNL     1      -2.361  -0.397   1.043  1.00  0.00     0.133 A 
ATOM     11  C   UNL     1      -3.128   0.388   0.172  1.00  0.00     0.093 A 
ENDROOT
BRANCH   1  12
ATOM     12  O   UNL     1      -3.458   1.176  -2.137  1.00  0.00    -0.496 OA
ATOM     13  C   UNL     1      -4.598   1.917  -1.720  1.00  0.00     0.278 C 
ENDBRANCH   1  12
BRANCH  10  14
ATOM     14  O   UNL     1      -2.724  -0.460   2.359  1.00  0.00    -0.507 OA
ATOM     15  H   UNL     1      -3.482   0.119   2.537  1.00  0.00     0.293 HD
ENDBRANCH  10  14
BRANCH   5  16
ATOM     16  C   UNL     1       2.062  -0.724  -0.121  1.00  0.00    -0.003 A 
ATOM     17  C   UNL     1       2.492   0.080  -1.201  1.00  0.00     0.011 A 
ATOM     18  C   UNL     1       2.462  -0.363   1.175  1.00  0.00     0.057 A 
ATOM     19  C   UNL     1       3.279   1.218  -0.998  1.00  0.00     0.050 A 
ATOM     20  C   UNL     1       3.248   0.769   1.367  1.00  0.00     0.157 A 
ATOM     21  C   UNL     1       3.652   1.556   0.294  1.00  0.00     0.157 A 
BRANCH  20  22
ATOM     22  O   UNL     1       3.627   1.104   2.636  1.00  0.00    -0.504 OA
ATOM     23  H   UNL     1       4.154   1.921   2.527  1.00  0.00     0.293 HD
ENDBRANCH  20  22
BRANCH  21  24
ATOM     24  O   UNL     1       4.422   2.654   0.562  1.00  0.00    -0.504 OA
ATOM     25  H   UNL     1       4.615   3.100  -0.280  1.00  0.00     0.293 HD
ENDBRANCH  21  24
ENDBRANCH   5  16
TORSDOF 5
