REMARK SMILES COc1cc(-c2cc(=O)c3c(O)cc(O)cc3o2)c(OC)c(OC)c1O
REMARK SMILES IDX 6 1 7 2 8 3 9 4 10 5 17 6 18 7 16 8 14 9 13 10 11 11 5 12
REMARK SMILES IDX 3 13 4 14 25 15 22 16 19 17 2 18 1 19 26 20 23 22 24 23
REMARK SMILES IDX 20 24 21 25 12 26 15 28
REMARK H PARENT 26 21 12 27 15 29
ROOT
ATOM      1  C   UNL     1      -0.687   0.338   0.279  1.00  0.00     0.142 C 
ATOM      2  C   UNL     1      -1.375   1.469   0.495  1.00  0.00     0.100 C 
ATOM      3  C   UNL     1      -2.817   1.384   0.758  1.00  0.00     0.197 C 
ATOM      4  O   UNL     1      -3.498   2.382   0.969  1.00  0.00    -0.289 OA
ATOM      5  C   UNL     1      -3.417   0.045   0.762  1.00  0.00     0.107 A 
ATOM      6  C   UNL     1      -2.589  -1.052   0.534  1.00  0.00     0.146 A 
ATOM      7  O   UNL     1      -1.240  -0.933   0.307  1.00  0.00    -0.455 OA
ATOM      8  C   UNL     1      -3.122  -2.341   0.533  1.00  0.00     0.094 A 
ATOM      9  C   UNL     1      -4.483  -2.519   0.762  1.00  0.00     0.123 A 
ATOM     10  C   UNL     1      -5.323  -1.432   0.992  1.00  0.00     0.093 A 
ATOM     11  C   UNL     1      -4.784  -0.147   0.992  1.00  0.00     0.134 A 
ENDROOT
BRANCH   1  12
ATOM     12  C   UNL     1       0.767   0.353   0.023  1.00  0.00     0.067 A 
ATOM     13  C   UNL     1       2.973  -0.477   0.618  1.00  0.00     0.165 A 
ATOM     14  C   UNL     1       1.594  -0.456   0.820  1.00  0.00     0.066 A 
ATOM     15  C   UNL     1       3.541   0.331  -0.382  1.00  0.00     0.204 A 
ATOM     16  C   UNL     1       2.748   1.158  -1.184  1.00  0.00     0.207 A 
ATOM     17  C   UNL     1       1.353   1.127  -0.999  1.00  0.00     0.175 A 
BRANCH  13  18
ATOM     18  O   UNL     1       3.877  -1.236   1.323  1.00  0.00    -0.493 OA
ATOM     19  C   UNL     1       3.350  -2.089   2.334  1.00  0.00     0.278 C 
ENDBRANCH  13  18
BRANCH  15  20
ATOM     20  O   UNL     1       4.901   0.257  -0.561  1.00  0.00    -0.502 OA
ATOM     21  H   UNL     1       5.213  -0.399   0.092  1.00  0.00     0.293 HD
ENDBRANCH  15  20
BRANCH  16  22
ATOM     22  O   UNL     1       3.205   1.979  -2.183  1.00  0.00    -0.490 OA
ATOM     23  C   UNL     1       4.474   2.585  -1.969  1.00  0.00     0.278 C 
ENDBRANCH  16  22
BRANCH  17  24
ATOM     24  O   UNL     1       0.538   1.917  -1.782  1.00  0.00    -0.492 OA
ATOM     25  C   UNL     1       0.314   1.295  -3.049  1.00  0.00     0.278 C 
ENDBRANCH  17  24
ENDBRANCH   1  12
BRANCH  11  26
ATOM     26  O   UNL     1      -5.653   0.885   1.224  1.00  0.00    -0.507 OA
ATOM     27  H   UNL     1      -5.143   1.727   1.198  1.00  0.00     0.293 HD
ENDBRANCH  11  26
BRANCH   9  28
ATOM     28  O   UNL     1      -4.964  -3.795   0.753  1.00  0.00    -0.508 OA
ATOM     29  H   UNL     1      -5.923  -3.771   0.914  1.00  0.00     0.293 HD
ENDBRANCH   9  28
TORSDOF 7
