REMARK SMILES C=C(C)/C=C/c1cc([C@@H]2CC(=O)c3c(O)cc(O)cc3O2)cc(CC=C(C)C)c1OC
REMARK SMILES IDX 29 1 23 2 22 3 8 4 7 5 6 6 30 7 31 8 24 9 25 10 26 11 27 12
REMARK SMILES IDX 28 13 5 14 4 15 2 16 1 17 3 18 9 19 10 20 21 21 11 22 20 23
REMARK SMILES IDX 12 24 13 25 19 26 14 27 17 28 16 29 15 30 18 32
REMARK H PARENT 15 31 18 33
ROOT
ATOM      1  C   UNL     1      -2.003  -0.932  -0.838  1.00  0.00     0.129 A 
ATOM      2  C   UNL     1      -1.373   0.242  -1.287  1.00  0.00    -0.001 A 
ATOM      3  C   UNL     1      -0.040   0.480  -0.911  1.00  0.00     0.015 A 
ATOM      4  C   UNL     1       0.665  -0.426  -0.104  1.00  0.00    -0.006 A 
ATOM      5  C   UNL     1       0.002  -1.575   0.354  1.00  0.00     0.019 A 
ATOM      6  C   UNL     1      -1.335  -1.832   0.014  1.00  0.00     0.017 A 
ENDROOT
BRANCH   1   7
ATOM      7  O   UNL     1      -3.313  -1.143  -1.200  1.00  0.00    -0.496 OA
ATOM      8  C   UNL     1      -3.386  -2.054  -2.299  1.00  0.00     0.278 C 
ENDBRANCH   1   7
BRANCH   2   9
ATOM      9  C   UNL     1      -2.095   1.280  -2.117  1.00  0.00     0.066 C 
BRANCH   9  10
ATOM     10  C   UNL     1      -2.686   2.371  -1.265  1.00  0.00    -0.023 C 
ATOM     11  C   UNL     1      -2.317   3.665  -1.184  1.00  0.00    -0.080 C 
ATOM     12  C   UNL     1      -1.179   4.295  -1.937  1.00  0.00     0.039 C 
ATOM     13  C   UNL     1      -3.054   4.613  -0.273  1.00  0.00     0.039 C 
ENDBRANCH   9  10
ENDBRANCH   2   9
BRANCH   6  14
ATOM     14  C   UNL     1      -1.946  -3.050   0.575  1.00  0.00     0.012 C 
ATOM     15  C   UNL     1      -3.118  -3.044   1.231  1.00  0.00     0.003 C 
BRANCH  15  16
ATOM     16  C   UNL     1      -3.774  -4.202   1.822  1.00  0.00    -0.058 C 
ATOM     17  C   UNL     1      -4.952  -4.053   2.451  1.00  0.00     0.012 C 
ATOM     18  C   UNL     1      -3.126  -5.557   1.720  1.00  0.00     0.043 C 
ENDBRANCH  15  16
ENDBRANCH   6  14
BRANCH   4  19
ATOM     19  C   UNL     1       2.096  -0.153   0.321  1.00  0.00     0.211 C 
ATOM     20  C   UNL     1       2.139   0.868   1.444  1.00  0.00     0.131 C 
ATOM     21  O   UNL     1       2.825   0.323  -0.821  1.00  0.00    -0.484 OA
ATOM     22  C   UNL     1       3.576   1.034   1.854  1.00  0.00     0.174 C 
ATOM     23  C   UNL     1       4.121   0.665  -0.530  1.00  0.00     0.138 A 
ATOM     24  O   UNL     1       3.872   1.221   3.029  1.00  0.00    -0.294 OA
ATOM     25  C   UNL     1       4.576   1.004   0.753  1.00  0.00     0.102 A 
ATOM     26  C   UNL     1       4.992   0.681  -1.622  1.00  0.00     0.093 A 
ATOM     27  C   UNL     1       5.928   1.328   0.932  1.00  0.00     0.133 A 
ATOM     28  C   UNL     1       6.327   1.007  -1.424  1.00  0.00     0.123 A 
ATOM     29  C   UNL     1       6.804   1.325  -0.157  1.00  0.00     0.093 A 
BRANCH  27  30
ATOM     30  O   UNL     1       6.414   1.664   2.162  1.00  0.00    -0.507 OA
ATOM     31  H   UNL     1       7.363   1.860   2.109  1.00  0.00     0.293 HD
ENDBRANCH  27  30
BRANCH  28  32
ATOM     32  O   UNL     1       7.216   1.027  -2.457  1.00  0.00    -0.508 OA
ATOM     33  H   UNL     1       6.753   0.793  -3.279  1.00  0.00     0.293 HD
ENDBRANCH  28  32
ENDBRANCH   4  19
TORSDOF 8
