REMARK SMILES CC(C)=CCc1cc([C@@H]2CC(=O)c3c(O)cc(O)cc3O2)cc(CC=C(C)C)c1O
REMARK SMILES IDX 23 1 22 2 8 3 7 4 6 5 29 6 24 7 25 8 26 9 27 10 28 11 30 12
REMARK SMILES IDX 9 14 10 15 21 16 11 17 20 18 12 19 13 20 19 21 14 22 17 23
REMARK SMILES IDX 16 24 15 25 18 27 5 29 4 30 2 31 1 32 3 33
REMARK H PARENT 30 13 15 26 18 28
ROOT
ATOM      1  C   UNL     1      -2.165  -1.167   0.496  1.00  0.00    -0.002 A 
ATOM      2  C   UNL     1      -0.769  -1.225   0.663  1.00  0.00     0.015 A 
ATOM      3  C   UNL     1       0.069  -0.197   0.209  1.00  0.00    -0.006 A 
ATOM      4  C   UNL     1      -0.512   0.910  -0.423  1.00  0.00     0.015 A 
ATOM      5  C   UNL     1      -1.900   0.988  -0.627  1.00  0.00    -0.002 A 
ATOM      6  C   UNL     1      -2.714  -0.058  -0.168  1.00  0.00     0.122 A 
ENDROOT
BRANCH   1   7
ATOM      7  C   UNL     1      -2.995  -2.312   1.035  1.00  0.00     0.066 C 
BRANCH   7   8
ATOM      8  C   UNL     1      -3.166  -3.414   0.023  1.00  0.00    -0.023 C 
ATOM      9  C   UNL     1      -2.719  -4.684   0.090  1.00  0.00    -0.080 C 
ATOM     10  C   UNL     1      -3.003  -5.653  -1.030  1.00  0.00     0.039 C 
ATOM     11  C   UNL     1      -1.916  -5.272   1.217  1.00  0.00     0.039 C 
ENDBRANCH   7   8
ENDBRANCH   1   7
BRANCH   6  12
ATOM     12  O   UNL     1      -4.059   0.056  -0.393  1.00  0.00    -0.507 OA
ATOM     13  H   UNL     1      -4.482  -0.809  -0.285  1.00  0.00     0.293 HD
ENDBRANCH   6  12
BRANCH   3  14
ATOM     14  C   UNL     1       1.566  -0.272   0.446  1.00  0.00     0.211 C 
ATOM     15  C   UNL     1       1.959   0.568   1.654  1.00  0.00     0.131 C 
ATOM     16  O   UNL     1       2.244   0.181  -0.738  1.00  0.00    -0.484 OA
ATOM     17  C   UNL     1       3.442   0.440   1.845  1.00  0.00     0.174 C 
ATOM     18  C   UNL     1       3.608   0.189  -0.603  1.00  0.00     0.138 A 
ATOM     19  O   UNL     1       3.984   0.508   2.946  1.00  0.00    -0.294 OA
ATOM     20  C   UNL     1       4.261   0.289   0.628  1.00  0.00     0.102 A 
ATOM     21  C   UNL     1       4.348   0.119  -1.784  1.00  0.00     0.093 A 
ATOM     22  C   UNL     1       5.658   0.282   0.680  1.00  0.00     0.133 A 
ATOM     23  C   UNL     1       5.739   0.115  -1.717  1.00  0.00     0.123 A 
ATOM     24  C   UNL     1       6.400   0.190  -0.494  1.00  0.00     0.093 A 
BRANCH  22  25
ATOM     25  O   UNL     1       6.361   0.372   1.852  1.00  0.00    -0.507 OA
ATOM     26  H   UNL     1       5.717   0.450   2.592  1.00  0.00     0.293 HD
ENDBRANCH  22  25
BRANCH  23  27
ATOM     27  O   UNL     1       6.502   0.036  -2.846  1.00  0.00    -0.508 OA
ATOM     28  H   UNL     1       5.919  -0.001  -3.622  1.00  0.00     0.293 HD
ENDBRANCH  23  27
ENDBRANCH   3  14
BRANCH   5  29
ATOM     29  C   UNL     1      -2.472   2.213  -1.308  1.00  0.00     0.066 C 
BRANCH  29  30
ATOM     30  C   UNL     1      -2.712   3.339  -0.337  1.00  0.00    -0.023 C 
ATOM     31  C   UNL     1      -2.063   4.517  -0.241  1.00  0.00    -0.080 C 
ATOM     32  C   UNL     1      -2.472   5.530   0.797  1.00  0.00     0.039 C 
ATOM     33  C   UNL     1      -0.906   4.945  -1.099  1.00  0.00     0.039 C 
ENDBRANCH  29  30
ENDBRANCH   5  29
TORSDOF 8
