REMARK SMILES COc1cc(-c2cc(=O)c3c(O)cc(O)cc3o2)c(OC)c(OC)c1OC
REMARK SMILES IDX 6 1 7 2 8 3 9 4 10 5 17 6 18 7 16 8 14 9 13 10 11 11 5 12
REMARK SMILES IDX 3 13 4 14 25 15 22 16 19 17 2 18 1 19 26 20 27 21 23 22
REMARK SMILES IDX 24 23 20 24 21 25 12 26 15 28
REMARK H PARENT 12 27 15 29
ROOT
ATOM      1  C   UNL     1      -1.079   0.277   0.244  1.00  0.00     0.142 C 
ATOM      2  C   UNL     1      -1.801   0.295   1.373  1.00  0.00     0.100 C 
ATOM      3  C   UNL     1      -3.237   0.589   1.292  1.00  0.00     0.197 C 
ATOM      4  O   UNL     1      -3.947   0.623   2.292  1.00  0.00    -0.289 OA
ATOM      5  C   UNL     1      -3.792   0.849  -0.041  1.00  0.00     0.107 A 
ATOM      6  C   UNL     1      -2.928   0.815  -1.135  1.00  0.00     0.146 A 
ATOM      7  O   UNL     1      -1.587   0.549  -1.017  1.00  0.00    -0.455 OA
ATOM      8  C   UNL     1      -3.417   1.061  -2.417  1.00  0.00     0.094 A 
ATOM      9  C   UNL     1      -4.770   1.340  -2.593  1.00  0.00     0.123 A 
ATOM     10  C   UNL     1      -5.643   1.377  -1.509  1.00  0.00     0.093 A 
ATOM     11  C   UNL     1      -5.149   1.131  -0.230  1.00  0.00     0.134 A 
ENDROOT
BRANCH   1  12
ATOM     12  C   UNL     1       0.372  -0.000   0.259  1.00  0.00     0.067 A 
ATOM     13  C   UNL     1       2.609   0.766  -0.339  1.00  0.00     0.165 A 
ATOM     14  C   UNL     1       1.230   0.970  -0.292  1.00  0.00     0.066 A 
ATOM     15  C   UNL     1       3.135  -0.438   0.159  1.00  0.00     0.207 A 
ATOM     16  C   UNL     1       2.304  -1.403   0.758  1.00  0.00     0.208 A 
ATOM     17  C   UNL     1       0.915  -1.187   0.796  1.00  0.00     0.175 A 
BRANCH  13  18
ATOM     18  O   UNL     1       3.515   1.652  -0.862  1.00  0.00    -0.493 OA
ATOM     19  C   UNL     1       3.023   2.905  -1.317  1.00  0.00     0.278 C 
ENDBRANCH  13  18
BRANCH  15  20
ATOM     20  O   UNL     1       4.492  -0.656   0.073  1.00  0.00    -0.490 OA
ATOM     21  C   UNL     1       4.802  -1.272  -1.179  1.00  0.00     0.278 C 
ENDBRANCH  15  20
BRANCH  16  22
ATOM     22  O   UNL     1       2.791  -2.605   1.212  1.00  0.00    -0.490 OA
ATOM     23  C   UNL     1       3.854  -2.472   2.156  1.00  0.00     0.278 C 
ENDBRANCH  16  22
BRANCH  17  24
ATOM     24  O   UNL     1       0.013  -2.116   1.262  1.00  0.00    -0.492 OA
ATOM     25  C   UNL     1       0.326  -2.672   2.536  1.00  0.00     0.278 C 
ENDBRANCH  17  24
ENDBRANCH   1  12
BRANCH  11  26
ATOM     26  O   UNL     1      -6.050   1.184   0.799  1.00  0.00    -0.507 OA
ATOM     27  H   UNL     1      -5.569   0.992   1.637  1.00  0.00     0.293 HD
ENDBRANCH  11  26
BRANCH   9  28
ATOM     28  O   UNL     1      -5.207   1.575  -3.863  1.00  0.00    -0.508 OA
ATOM     29  H   UNL     1      -6.166   1.737  -3.840  1.00  0.00     0.293 HD
ENDBRANCH   9  28
TORSDOF 7
