REMARK SMILES COc1cc(O)c2c(c1)OC(c1ccccc1)CC2=O
REMARK SMILES IDX 3 1 9 2 8 3 10 4 11 5 18 6 19 7 20 8 7 9 5 10 4 11 2 12 1 13
REMARK SMILES IDX 6 14 12 16 13 17 17 18 14 19 16 20 15 21
REMARK H PARENT 6 15
ROOT
ATOM      1  C   UNL     1      -3.325  -0.438  -0.507  1.00  0.00     0.126 A 
ATOM      2  C   UNL     1      -1.995  -0.576  -0.922  1.00  0.00     0.093 A 
ATOM      3  C   UNL     1      -0.947  -0.200  -0.083  1.00  0.00     0.138 A 
ATOM      4  O   UNL     1       0.322  -0.364  -0.572  1.00  0.00    -0.484 OA
ATOM      5  C   UNL     1       1.284   0.496   0.062  1.00  0.00     0.211 C 
ATOM      6  C   UNL     1       1.284   0.293   1.571  1.00  0.00     0.131 C 
ATOM      7  C   UNL     1      -0.091   0.606   2.083  1.00  0.00     0.174 C 
ATOM      8  O   UNL     1      -0.303   1.053   3.208  1.00  0.00    -0.294 OA
ATOM      9  C   UNL     1      -1.223   0.288   1.193  1.00  0.00     0.102 A 
ATOM     10  C   UNL     1      -2.549   0.430   1.611  1.00  0.00     0.133 A 
ATOM     11  C   UNL     1      -3.598   0.074   0.764  1.00  0.00     0.093 A 
ENDROOT
BRANCH   1  12
ATOM     12  O   UNL     1      -4.253  -0.833  -1.429  1.00  0.00    -0.496 OA
ATOM     13  C   UNL     1      -5.621  -0.721  -1.055  1.00  0.00     0.278 C 
ENDBRANCH   1  12
BRANCH  10  14
ATOM     14  O   UNL     1      -2.892   0.907   2.848  1.00  0.00    -0.507 OA
ATOM     15  H   UNL     1      -2.064   1.099   3.344  1.00  0.00     0.293 HD
ENDBRANCH  10  14
BRANCH   5  16
ATOM     16  C   UNL     1       2.659   0.207  -0.513  1.00  0.00    -0.007 A 
ATOM     17  C   UNL     1       3.557   1.260  -0.746  1.00  0.00     0.007 A 
ATOM     18  C   UNL     1       3.076  -1.106  -0.785  1.00  0.00     0.007 A 
ATOM     19  C   UNL     1       4.835   1.007  -1.249  1.00  0.00     0.000 A 
ATOM     20  C   UNL     1       4.354  -1.356  -1.288  1.00  0.00     0.000 A 
ATOM     21  C   UNL     1       5.232  -0.300  -1.520  1.00  0.00     0.000 A 
ENDBRANCH   5  16
TORSDOF 3
