REMARK SMILES COc1ccc(-c2cc3ccc(O)cc3o2)c(O)c1
REMARK SMILES IDX 7 1 8 2 9 3 15 4 16 5 14 6 12 7 11 8 10 9 6 10 3 11 4 12
REMARK SMILES IDX 19 13 5 14 17 15 2 16 1 17 18 18 13 20
REMARK H PARENT 18 19 13 21
ROOT
ATOM      1  C   UNL     1       0.506  -0.003  -0.289  1.00  0.00     0.139 A 
ATOM      2  C   UNL     1       1.213   0.050  -1.478  1.00  0.00     0.059 A 
ATOM      3  C   UNL     1       2.592  -0.039  -1.150  1.00  0.00     0.021 A 
ATOM      4  C   UNL     1       2.644  -0.142   0.233  1.00  0.00     0.138 A 
ATOM      5  O   UNL     1       1.386  -0.120   0.754  1.00  0.00    -0.456 OA
ATOM      6  C   UNL     1       3.820  -0.252   0.972  1.00  0.00     0.093 A 
ATOM      7  C   UNL     1       5.001  -0.254   0.230  1.00  0.00     0.119 A 
ATOM      8  C   UNL     1       5.002  -0.153  -1.161  1.00  0.00     0.047 A 
ATOM      9  C   UNL     1       3.799  -0.044  -1.872  1.00  0.00     0.016 A 
ENDROOT
BRANCH   1  10
ATOM     10  C   UNL     1      -0.919   0.039   0.058  1.00  0.00     0.059 A 
ATOM     11  C   UNL     1      -3.701   0.130   0.625  1.00  0.00     0.122 A 
ATOM     12  C   UNL     1      -3.248   0.204  -0.690  1.00  0.00     0.047 A 
ATOM     13  C   UNL     1      -2.769   0.011   1.655  1.00  0.00     0.093 A 
ATOM     14  C   UNL     1      -1.873   0.159  -0.967  1.00  0.00     0.020 A 
ATOM     15  C   UNL     1      -1.401  -0.033   1.376  1.00  0.00     0.130 A 
BRANCH  11  16
ATOM     16  O   UNL     1      -5.006   0.163   1.030  1.00  0.00    -0.497 OA
ATOM     17  C   UNL     1      -5.995   0.283   0.015  1.00  0.00     0.278 C 
ENDBRANCH  11  16
BRANCH  15  18
ATOM     18  O   UNL     1      -0.585  -0.152   2.472  1.00  0.00    -0.507 OA
ATOM     19  H   UNL     1       0.336  -0.172   2.148  1.00  0.00     0.293 HD
ENDBRANCH  15  18
ENDBRANCH   1  10
BRANCH   7  20
ATOM     20  O   UNL     1       6.215  -0.356   0.848  1.00  0.00    -0.508 OA
ATOM     21  H   UNL     1       6.074  -0.419   1.807  1.00  0.00     0.293 HD
ENDBRANCH   7  20
TORSDOF 4
