REMARK SMILES CC[C@H](CC[C@@H](C)[C@H]1CC[C@H]2[C@@H]3CC(O)C4=CC(=O)CC[C@]4(C)[C@H]3CC[C@]12C)C(C)C
REMARK SMILES IDX 5 1 4 2 3 3 2 4 1 5 29 6 30 7 31 8 6 9 7 10 8 11 9 12 27 13
REMARK SMILES IDX 10 14 11 15 26 16 12 17 25 18 24 19 13 20 22 21 14 22 21 23
REMARK SMILES IDX 16 24 20 25 17 26 18 27 19 28 28 29 23 30 15 31
REMARK H PARENT 15 32
ROOT
ATOM      1  C   UNL     1       3.124   0.015  -0.249  1.00  0.00     0.004 C 
ENDROOT
BRANCH   1   2
ATOM      2  C   UNL     1       4.400   0.872  -0.208  1.00  0.00     0.004 C 
BRANCH   2   3
ATOM      3  C   UNL     1       5.706   0.052   0.014  1.00  0.00    -0.009 C 
BRANCH   3   4
ATOM      4  C   UNL     1       5.924  -0.926  -1.165  1.00  0.00     0.000 C 
ATOM      5  C   UNL     1       7.110  -1.867  -1.030  1.00  0.00     0.004 C 
ENDBRANCH   3   4
BRANCH   3   6
ATOM      6  C   UNL     1       6.877   1.042   0.313  1.00  0.00    -0.014 C 
ATOM      7  C   UNL     1       7.453   1.722  -0.930  1.00  0.00     0.007 C 
ATOM      8  C   UNL     1       7.998   0.416   1.149  1.00  0.00     0.007 C 
ENDBRANCH   3   6
ENDBRANCH   2   3
ENDBRANCH   1   2
BRANCH   1   9
ATOM      9  C   UNL     1       1.810   0.832  -0.097  1.00  0.00    -0.011 C 
ATOM     10  C   UNL     1       1.669   1.829  -1.251  1.00  0.00     0.008 C 
BRANCH   9  11
ATOM     11  C   UNL     1       0.589  -0.131   0.004  1.00  0.00    -0.002 C 
ATOM     12  C   UNL     1       0.715  -1.104   1.216  1.00  0.00     0.005 C 
ATOM     13  C   UNL     1      -0.850   0.452   0.177  1.00  0.00    -0.026 C 
ATOM     14  C   UNL     1      -0.705  -1.426   1.694  1.00  0.00     0.005 C 
ATOM     15  C   UNL     1      -1.596  -0.835   0.613  1.00  0.00    -0.001 C 
ATOM     16  C   UNL     1      -1.539   0.939  -1.111  1.00  0.00     0.007 C 
ATOM     17  C   UNL     1      -3.077  -0.605   0.942  1.00  0.00    -0.001 C 
ATOM     18  C   UNL     1      -3.050   1.167  -0.920  1.00  0.00     0.005 C 
ATOM     19  C   UNL     1      -3.796  -0.059  -0.340  1.00  0.00     0.003 C 
ATOM     20  C   UNL     1      -3.748  -1.895   1.457  1.00  0.00     0.040 C 
ATOM     21  C   UNL     1      -5.330   0.172  -0.092  1.00  0.00    -0.005 C 
ATOM     22  C   UNL     1      -5.260  -1.756   1.652  1.00  0.00     0.141 C 
ATOM     23  C   UNL     1      -6.099   0.625  -1.371  1.00  0.00     0.020 C 
ATOM     24  C   UNL     1      -5.888  -1.175   0.408  1.00  0.00    -0.032 C 
ATOM     25  C   UNL     1      -6.367  -0.493  -2.361  1.00  0.00     0.081 C 
ATOM     26  C   UNL     1      -6.760  -1.928  -0.289  1.00  0.00     0.049 C 
ATOM     27  C   UNL     1      -7.151  -1.578  -1.673  1.00  0.00     0.155 C 
ATOM     28  O   UNL     1      -8.022  -2.232  -2.241  1.00  0.00    -0.295 OA
ATOM     29  C   UNL     1      -0.865   1.573   1.245  1.00  0.00     0.012 C 
ATOM     30  C   UNL     1      -5.578   1.310   0.932  1.00  0.00     0.016 C 
BRANCH  22  31
ATOM     31  O   UNL     1      -5.542  -0.944   2.778  1.00  0.00    -0.389 OA
ATOM     32  H   UNL     1      -6.508  -0.847   2.825  1.00  0.00     0.211 HD
ENDBRANCH  22  31
ENDBRANCH   9  11
ENDBRANCH   1   9
TORSDOF 7
