REMARK SMILES COc1ccc2c(=O)c3c(OC)c4c(cc3n(C)c2c1OC)OCO4
REMARK SMILES IDX 3 1 4 2 5 3 6 4 19 5 20 6 17 7 18 8 16 9 9 10 7 11 8 12
REMARK SMILES IDX 10 13 13 14 14 15 15 16 23 17 24 18 25 19 2 20 1 21 21 22
REMARK SMILES IDX 22 23 11 24 12 25
REMARK H PARENT
ROOT
ATOM      1  C   UNL     1       3.525  -0.693   0.074  1.00  0.00     0.162 A 
ATOM      2  C   UNL     1       3.096  -2.017   0.017  1.00  0.00     0.051 A 
ATOM      3  C   UNL     1       1.735  -2.307   0.099  1.00  0.00     0.018 A 
ATOM      4  C   UNL     1       0.794  -1.279   0.271  1.00  0.00     0.051 A 
ATOM      5  C   UNL     1       1.186   0.063   0.388  1.00  0.00     0.099 A 
ATOM      6  C   UNL     1       2.566   0.335   0.221  1.00  0.00     0.185 A 
ATOM      7  N   UNL     1       0.197   1.047   0.619  1.00  0.00    -0.340 N 
ATOM      8  C   UNL     1       0.598   2.237   1.384  1.00  0.00     0.150 C 
ATOM      9  C   UNL     1      -1.190   0.791   0.506  1.00  0.00     0.060 A 
ATOM     10  C   UNL     1      -1.658  -0.544   0.357  1.00  0.00     0.092 A 
ATOM     11  C   UNL     1      -0.644  -1.632   0.316  1.00  0.00     0.201 C 
ATOM     12  O   UNL     1      -0.957  -2.818   0.279  1.00  0.00    -0.288 OA
ATOM     13  C   UNL     1      -3.036  -0.818   0.245  1.00  0.00     0.178 A 
ATOM     14  C   UNL     1      -3.919   0.245   0.280  1.00  0.00     0.208 A 
ATOM     15  C   UNL     1      -3.474   1.537   0.393  1.00  0.00     0.171 A 
ATOM     16  C   UNL     1      -2.132   1.839   0.498  1.00  0.00     0.078 A 
ATOM     17  O   UNL     1      -4.488   2.443   0.390  1.00  0.00    -0.453 OA
ATOM     18  C   UNL     1      -5.632   1.571   0.291  1.00  0.00     0.468 C 
ATOM     19  O   UNL     1      -5.277   0.178   0.197  1.00  0.00    -0.450 OA
ENDROOT
BRANCH   1  20
ATOM     20  O   UNL     1       4.833  -0.294  -0.024  1.00  0.00    -0.493 OA
ATOM     21  C   UNL     1       5.829  -1.309  -0.028  1.00  0.00     0.278 C 
ENDBRANCH   1  20
BRANCH   6  22
ATOM     22  O   UNL     1       3.013   1.642   0.203  1.00  0.00    -0.491 OA
ATOM     23  C   UNL     1       3.099   2.104  -1.146  1.00  0.00     0.278 C 
ENDBRANCH   6  22
BRANCH  13  24
ATOM     24  O   UNL     1      -3.538  -2.087   0.181  1.00  0.00    -0.492 OA
ATOM     25  C   UNL     1      -3.759  -2.472  -1.175  1.00  0.00     0.278 C 
ENDBRANCH  13  24
TORSDOF 3
