REMARK SMILES COc1ccc(C2CC(=O)c3c(OC)c(OC)c(O)c(OC)c3O2)cc1
REMARK SMILES IDX 7 1 8 2 9 3 10 4 11 5 23 6 24 7 20 8 18 9 15 10 12 11 6 12
REMARK SMILES IDX 3 13 4 14 26 15 5 16 25 17 2 18 1 19 21 20 22 21 13 22 14 23
REMARK SMILES IDX 19 24 16 26 17 27
REMARK H PARENT 19 25
ROOT
ATOM      1  C   UNL     1       0.823   0.493   0.707  1.00  0.00     0.211 C 
ATOM      2  C   UNL     1       0.280  -0.167   1.957  1.00  0.00     0.131 C 
ATOM      3  C   UNL     1      -1.184   0.153   1.999  1.00  0.00     0.174 C 
ATOM      4  O   UNL     1      -1.725   0.476   3.051  1.00  0.00    -0.294 OA
ATOM      5  C   UNL     1      -1.913   0.054   0.704  1.00  0.00     0.110 A 
ATOM      6  C   UNL     1      -1.150  -0.052  -0.477  1.00  0.00     0.180 A 
ATOM      7  O   UNL     1       0.220  -0.089  -0.455  1.00  0.00    -0.480 OA
ATOM      8  C   UNL     1      -1.799  -0.177  -1.715  1.00  0.00     0.208 A 
ATOM      9  C   UNL     1      -3.205  -0.210  -1.752  1.00  0.00     0.208 A 
ATOM     10  C   UNL     1      -3.972  -0.124  -0.588  1.00  0.00     0.208 A 
ATOM     11  C   UNL     1      -3.317   0.042   0.642  1.00  0.00     0.179 A 
ENDROOT
BRANCH   1  12
ATOM     12  C   UNL     1       2.326   0.315   0.607  1.00  0.00    -0.007 A 
ATOM     13  C   UNL     1       5.128   0.006   0.471  1.00  0.00     0.118 A 
ATOM     14  C   UNL     1       4.574   1.209   0.908  1.00  0.00     0.047 A 
ATOM     15  C   UNL     1       4.279  -1.041   0.107  1.00  0.00     0.047 A 
ATOM     16  C   UNL     1       3.184   1.361   0.977  1.00  0.00     0.011 A 
ATOM     17  C   UNL     1       2.892  -0.892   0.176  1.00  0.00     0.011 A 
BRANCH  13  18
ATOM     18  O   UNL     1       6.461  -0.273   0.356  1.00  0.00    -0.497 OA
ATOM     19  C   UNL     1       7.368   0.757   0.730  1.00  0.00     0.278 C 
ENDBRANCH  13  18
ENDBRANCH   1  12
BRANCH   8  20
ATOM     20  O   UNL     1      -1.233  -0.287  -2.964  1.00  0.00    -0.490 OA
ATOM     21  C   UNL     1       0.145   0.023  -3.122  1.00  0.00     0.278 C 
ENDBRANCH   8  20
BRANCH  11  22
ATOM     22  O   UNL     1      -4.066   0.058   1.794  1.00  0.00    -0.492 OA
ATOM     23  C   UNL     1      -4.555   1.373   2.058  1.00  0.00     0.278 C 
ENDBRANCH  11  22
BRANCH   9  24
ATOM     24  O   UNL     1      -3.815  -0.309  -2.981  1.00  0.00    -0.501 OA
ATOM     25  H   UNL     1      -3.086  -0.348  -3.631  1.00  0.00     0.293 HD
ENDBRANCH   9  24
BRANCH  10  26
ATOM     26  O   UNL     1      -5.343  -0.139  -0.563  1.00  0.00    -0.490 OA
ATOM     27  C   UNL     1      -5.940  -1.164  -1.352  1.00  0.00     0.278 C 
ENDBRANCH  10  26
TORSDOF 6
