REMARK SMILES COc1cc(O)cc2c1C(=O)CC(c1ccccc1)O2
REMARK SMILES IDX 3 1 4 2 5 3 7 4 8 5 9 6 10 7 11 8 12 9 13 10 20 11 2 12 1 13
REMARK SMILES IDX 6 14 14 16 15 17 19 18 16 19 18 20 17 21
REMARK H PARENT 6 15
ROOT
ATOM      1  C   UNL     1      -2.981  -0.292  -0.052  1.00  0.00     0.137 A 
ATOM      2  C   UNL     1      -3.614   0.958  -0.034  1.00  0.00     0.093 A 
ATOM      3  C   UNL     1      -2.863   2.130  -0.058  1.00  0.00     0.123 A 
ATOM      4  C   UNL     1      -1.478   2.091  -0.090  1.00  0.00     0.093 A 
ATOM      5  C   UNL     1      -0.834   0.854  -0.087  1.00  0.00     0.138 A 
ATOM      6  C   UNL     1      -1.573  -0.340  -0.085  1.00  0.00     0.102 A 
ATOM      7  C   UNL     1      -0.805  -1.617  -0.154  1.00  0.00     0.174 C 
ATOM      8  O   UNL     1      -1.322  -2.724  -0.058  1.00  0.00    -0.294 OA
ATOM      9  C   UNL     1       0.673  -1.487  -0.401  1.00  0.00     0.131 C 
ATOM     10  C   UNL     1       1.164  -0.281   0.376  1.00  0.00     0.211 C 
ATOM     11  O   UNL     1       0.537   0.914  -0.110  1.00  0.00    -0.484 OA
ENDROOT
BRANCH   1  12
ATOM     12  O   UNL     1      -3.658  -1.480  -0.052  1.00  0.00    -0.496 OA
ATOM     13  C   UNL     1      -5.077  -1.451   0.004  1.00  0.00     0.278 C 
ENDBRANCH   1  12
BRANCH   3  14
ATOM     14  O   UNL     1      -3.540   3.315  -0.049  1.00  0.00    -0.508 OA
ATOM     15  H   UNL     1      -2.900   4.046  -0.072  1.00  0.00     0.293 HD
ENDBRANCH   3  14
BRANCH  10  16
ATOM     16  C   UNL     1       2.668  -0.132   0.241  1.00  0.00    -0.007 A 
ATOM     17  C   UNL     1       3.513  -0.598   1.260  1.00  0.00     0.007 A 
ATOM     18  C   UNL     1       3.247   0.435  -0.906  1.00  0.00     0.007 A 
ATOM     19  C   UNL     1       4.900  -0.490   1.139  1.00  0.00     0.000 A 
ATOM     20  C   UNL     1       4.634   0.543  -1.024  1.00  0.00     0.000 A 
ATOM     21  C   UNL     1       5.459   0.081  -0.002  1.00  0.00     0.000 A 
ENDBRANCH  10  16
TORSDOF 3
