REMARK SMILES COc1cc(O)c2c(c1)O[C@H](c1ccc(O)cc1)[C@@H](O)C2=O
REMARK SMILES IDX 3 1 9 2 8 3 10 4 11 5 19 6 21 7 22 8 7 9 5 10 4 11 2 12 1 13
REMARK SMILES IDX 6 14 12 16 13 17 18 18 14 19 17 20 15 21 16 22 20 24
REMARK H PARENT 6 15 16 23 20 25
ROOT
ATOM      1  C   UNL     1       3.502  -0.840   0.441  1.00  0.00     0.126 A 
ATOM      2  C   UNL     1       2.146  -1.182   0.390  1.00  0.00     0.093 A 
ATOM      3  C   UNL     1       1.177  -0.216   0.113  1.00  0.00     0.138 A 
ATOM      4  O   UNL     1      -0.119  -0.648   0.083  1.00  0.00    -0.481 OA
ATOM      5  C   UNL     1      -1.091   0.389   0.315  1.00  0.00     0.240 C 
ATOM      6  C   UNL     1      -0.894   1.573  -0.640  1.00  0.00     0.231 C 
ATOM      7  C   UNL     1       0.529   2.076  -0.505  1.00  0.00     0.202 C 
ATOM      8  O   UNL     1       0.841   3.250  -0.714  1.00  0.00    -0.291 OA
ATOM      9  C   UNL     1       1.564   1.094  -0.148  1.00  0.00     0.105 A 
ATOM     10  C   UNL     1       2.918   1.442  -0.095  1.00  0.00     0.133 A 
ATOM     11  C   UNL     1       3.885   0.481   0.201  1.00  0.00     0.093 A 
ENDROOT
BRANCH   1  12
ATOM     12  O   UNL     1       4.341  -1.879   0.732  1.00  0.00    -0.496 OA
ATOM     13  C   UNL     1       5.731  -1.584   0.804  1.00  0.00     0.278 C 
ENDBRANCH   1  12
BRANCH  10  14
ATOM     14  O   UNL     1       3.372   2.711  -0.333  1.00  0.00    -0.507 OA
ATOM     15  H   UNL     1       2.598   3.288  -0.523  1.00  0.00     0.293 HD
ENDBRANCH  10  14
BRANCH   5  16
ATOM     16  C   UNL     1      -2.475  -0.228   0.151  1.00  0.00    -0.004 A 
ATOM     17  C   UNL     1      -2.725  -1.244  -0.788  1.00  0.00     0.011 A 
ATOM     18  C   UNL     1      -3.544   0.241   0.932  1.00  0.00     0.011 A 
ATOM     19  C   UNL     1      -4.005  -1.787  -0.931  1.00  0.00     0.046 A 
ATOM     20  C   UNL     1      -4.823  -0.300   0.788  1.00  0.00     0.046 A 
ATOM     21  C   UNL     1      -5.043  -1.310  -0.139  1.00  0.00     0.115 A 
BRANCH  21  22
ATOM     22  O   UNL     1      -6.306  -1.811  -0.246  1.00  0.00    -0.508 OA
ATOM     23  H   UNL     1      -6.307  -2.505  -0.924  1.00  0.00     0.293 HD
ENDBRANCH  21  22
ENDBRANCH   5  16
BRANCH   6  24
ATOM     24  O   UNL     1      -1.771   2.660  -0.329  1.00  0.00    -0.381 OA
ATOM     25  H   UNL     1      -1.415   3.443  -0.794  1.00  0.00     0.211 HD
ENDBRANCH   6  24
TORSDOF 5
