REMARK SMILES COc1cc(C2CC(=O)c3c(O)cc(O)cc3O2)cc2c1OC(C)(C)C=C2
REMARK SMILES IDX 6 1 7 2 8 3 9 4 10 5 17 6 18 7 16 8 14 9 13 10 11 11 5 12
REMARK SMILES IDX 3 13 4 14 21 15 20 16 22 17 19 18 27 19 23 20 26 21 24 22
REMARK SMILES IDX 25 23 2 24 1 25 12 26 15 28
REMARK H PARENT 12 27 15 29
ROOT
ATOM      1  C   UNL     1       1.747   0.062   0.498  1.00  0.00     0.211 C 
ATOM      2  C   UNL     1       2.149   1.479   0.882  1.00  0.00     0.131 C 
ATOM      3  C   UNL     1       3.647   1.561   0.855  1.00  0.00     0.174 C 
ATOM      4  O   UNL     1       4.290   2.311   1.586  1.00  0.00    -0.294 OA
ATOM      5  C   UNL     1       4.342   0.737  -0.152  1.00  0.00     0.102 A 
ATOM      6  C   UNL     1       3.580  -0.120  -0.949  1.00  0.00     0.138 A 
ATOM      7  O   UNL     1       2.224  -0.269  -0.818  1.00  0.00    -0.484 OA
ATOM      8  C   UNL     1       4.190  -0.863  -1.961  1.00  0.00     0.093 A 
ATOM      9  C   UNL     1       5.567  -0.765  -2.142  1.00  0.00     0.123 A 
ATOM     10  C   UNL     1       6.340   0.069  -1.338  1.00  0.00     0.093 A 
ATOM     11  C   UNL     1       5.725   0.825  -0.344  1.00  0.00     0.133 A 
ENDROOT
BRANCH   1  12
ATOM     12  C   UNL     1       0.237  -0.091   0.521  1.00  0.00    -0.003 A 
ATOM     13  C   UNL     1      -1.786  -0.795   1.691  1.00  0.00     0.161 A 
ATOM     14  C   UNL     1      -0.393  -0.665   1.639  1.00  0.00     0.058 A 
ATOM     15  C   UNL     1      -2.563  -0.336   0.612  1.00  0.00     0.169 A 
ATOM     16  C   UNL     1      -1.949   0.239  -0.505  1.00  0.00     0.021 A 
ATOM     17  O   UNL     1      -3.920  -0.497   0.710  1.00  0.00    -0.479 OA
ATOM     18  C   UNL     1      -0.555   0.361  -0.545  1.00  0.00     0.019 A 
ATOM     19  C   UNL     1      -2.753   0.703  -1.625  1.00  0.00     0.012 C 
ATOM     20  C   UNL     1      -4.779   0.073  -0.294  1.00  0.00     0.122 C 
ATOM     21  C   UNL     1      -4.081   0.624  -1.516  1.00  0.00     0.021 C 
ATOM     22  C   UNL     1      -5.575   1.192   0.387  1.00  0.00     0.061 C 
ATOM     23  C   UNL     1      -5.732  -1.050  -0.723  1.00  0.00     0.061 C 
BRANCH  13  24
ATOM     24  O   UNL     1      -2.479  -1.343   2.741  1.00  0.00    -0.493 OA
ATOM     25  C   UNL     1      -1.730  -1.864   3.829  1.00  0.00     0.278 C 
ENDBRANCH  13  24
ENDBRANCH   1  12
BRANCH  11  26
ATOM     26  O   UNL     1       6.531   1.640   0.404  1.00  0.00    -0.507 OA
ATOM     27  H   UNL     1       5.968   2.125   1.049  1.00  0.00     0.293 HD
ENDBRANCH  11  26
BRANCH   9  28
ATOM     28  O   UNL     1       6.207  -1.481  -3.111  1.00  0.00    -0.508 OA
ATOM     29  H   UNL     1       5.555  -2.011  -3.600  1.00  0.00     0.293 HD
ENDBRANCH   9  28
TORSDOF 4
