REMARK SMILES CC(C)=CCc1cc(C2CC(=O)c3ccc(O)cc3O2)cc2c1OC(C)(C)C=C2
REMARK SMILES IDX 6 1 7 2 8 3 21 4 22 5 23 6 24 7 25 8 26 9 27 10 28 11 29 12
REMARK SMILES IDX 5 13 4 14 2 15 1 16 3 17 9 18 10 19 20 20 11 21 19 22 12 23
REMARK SMILES IDX 13 24 18 25 14 26 16 27 15 28 17 29
REMARK H PARENT 17 30
ROOT
ATOM      1  C   UNL     1      -1.247   0.481  -0.838  1.00  0.00    -0.001 A 
ATOM      2  C   UNL     1       0.108   0.808  -1.028  1.00  0.00     0.015 A 
ATOM      3  C   UNL     1       1.130  -0.089  -0.677  1.00  0.00    -0.006 A 
ATOM      4  C   UNL     1       0.776  -1.333  -0.134  1.00  0.00     0.019 A 
ATOM      5  C   UNL     1      -0.567  -1.670   0.075  1.00  0.00     0.017 A 
ATOM      6  C   UNL     1      -1.574  -0.761  -0.269  1.00  0.00     0.131 A 
ATOM      7  O   UNL     1      -2.904  -1.045  -0.112  1.00  0.00    -0.483 OA
ATOM      8  C   UNL     1      -3.277  -2.148   0.738  1.00  0.00     0.122 C 
ATOM      9  C   UNL     1      -3.709  -1.566   2.089  1.00  0.00     0.061 C 
ATOM     10  C   UNL     1      -4.481  -2.807   0.053  1.00  0.00     0.061 C 
ATOM     11  C   UNL     1      -2.198  -3.184   0.949  1.00  0.00     0.021 C 
ATOM     12  C   UNL     1      -0.918  -2.967   0.634  1.00  0.00     0.012 C 
ENDROOT
BRANCH   1  13
ATOM     13  C   UNL     1      -2.317   1.481  -1.219  1.00  0.00     0.066 C 
BRANCH  13  14
ATOM     14  C   UNL     1      -2.725   2.352  -0.060  1.00  0.00    -0.023 C 
ATOM     15  C   UNL     1      -3.946   2.485   0.496  1.00  0.00    -0.080 C 
ATOM     16  C   UNL     1      -5.184   1.749   0.062  1.00  0.00     0.039 C 
ATOM     17  C   UNL     1      -4.161   3.422   1.656  1.00  0.00     0.039 C 
ENDBRANCH  13  14
ENDBRANCH   1  13
BRANCH   3  18
ATOM     18  C   UNL     1       2.581   0.281  -0.927  1.00  0.00     0.211 C 
ATOM     19  C   UNL     1       3.059  -0.304  -2.249  1.00  0.00     0.131 C 
ATOM     20  O   UNL     1       3.379  -0.200   0.169  1.00  0.00    -0.484 OA
ATOM     21  C   UNL     1       4.487   0.114  -2.455  1.00  0.00     0.170 C 
ATOM     22  C   UNL     1       4.715   0.051   0.006  1.00  0.00     0.134 A 
ATOM     23  O   UNL     1       4.969   0.295  -3.568  1.00  0.00    -0.294 OA
ATOM     24  C   UNL     1       5.317   0.237  -1.240  1.00  0.00     0.060 A 
ATOM     25  C   UNL     1       5.492   0.091   1.161  1.00  0.00     0.093 A 
ATOM     26  C   UNL     1       6.688   0.497  -1.336  1.00  0.00     0.019 A 
ATOM     27  C   UNL     1       6.857   0.347   1.062  1.00  0.00     0.119 A 
ATOM     28  C   UNL     1       7.462   0.555  -0.176  1.00  0.00     0.047 A 
BRANCH  27  29
ATOM     29  O   UNL     1       7.579   0.387   2.218  1.00  0.00    -0.508 OA
ATOM     30  H   UNL     1       8.509   0.568   2.004  1.00  0.00     0.293 HD
ENDBRANCH  27  29
ENDBRANCH   3  18
TORSDOF 4
