REMARK SMILES CC1(C)C=Cc2cc([C@@H]3CC(=O)c4c(O)cc(O)cc4O3)ccc2O1
REMARK SMILES IDX 17 1 19 2 20 3 21 4 9 5 10 6 11 7 12 8 13 9 14 10 16 11
REMARK SMILES IDX 18 12 15 14 8 16 22 17 7 18 23 19 6 20 24 21 5 22 25 23 4 24
REMARK SMILES IDX 2 25 1 26 3 27
REMARK H PARENT 18 13 15 15
ROOT
ATOM      1  C   UNL     1      -5.433  -1.953   0.517  1.00  0.00     0.123 A 
ATOM      2  C   UNL     1      -4.043  -1.890   0.444  1.00  0.00     0.093 A 
ATOM      3  C   UNL     1      -3.432  -0.688   0.084  1.00  0.00     0.138 A 
ATOM      4  O   UNL     1      -2.063  -0.695   0.024  1.00  0.00    -0.484 OA
ATOM      5  C   UNL     1      -1.535   0.333  -0.832  1.00  0.00     0.211 C 
ATOM      6  C   UNL     1      -2.021   1.708  -0.396  1.00  0.00     0.131 C 
ATOM      7  C   UNL     1      -3.521   1.715  -0.467  1.00  0.00     0.174 C 
ATOM      8  O   UNL     1      -4.175   2.728  -0.706  1.00  0.00    -0.294 OA
ATOM      9  C   UNL     1      -4.209   0.447  -0.165  1.00  0.00     0.102 A 
ATOM     10  C   UNL     1      -5.603   0.369  -0.089  1.00  0.00     0.133 A 
ATOM     11  C   UNL     1      -6.217  -0.835   0.248  1.00  0.00     0.093 A 
ENDROOT
BRANCH   1  12
ATOM     12  O   UNL     1      -6.072  -3.109   0.853  1.00  0.00    -0.508 OA
ATOM     13  H   UNL     1      -5.412  -3.803   1.018  1.00  0.00     0.293 HD
ENDBRANCH   1  12
BRANCH  10  14
ATOM     14  O   UNL     1      -6.423   1.438  -0.324  1.00  0.00    -0.507 OA
ATOM     15  H   UNL     1      -5.861   2.219  -0.531  1.00  0.00     0.293 HD
ENDBRANCH  10  14
BRANCH   5  16
ATOM     16  C   UNL     1      -0.019   0.266  -0.794  1.00  0.00    -0.006 A 
ATOM     17  C   UNL     1       0.720   0.441  -1.972  1.00  0.00     0.011 A 
ATOM     18  C   UNL     1       0.673   0.064   0.413  1.00  0.00     0.019 A 
ATOM     19  C   UNL     1       2.116   0.405  -1.944  1.00  0.00     0.047 A 
ATOM     20  C   UNL     1       2.074   0.027   0.442  1.00  0.00     0.017 A 
ATOM     21  C   UNL     1       2.791   0.198  -0.741  1.00  0.00     0.127 A 
ATOM     22  C   UNL     1       2.782  -0.186   1.693  1.00  0.00     0.012 C 
ATOM     23  O   UNL     1       4.154   0.181  -0.818  1.00  0.00    -0.483 OA
ATOM     24  C   UNL     1       4.117  -0.212   1.657  1.00  0.00     0.021 C 
ATOM     25  C   UNL     1       4.919  -0.032   0.387  1.00  0.00     0.122 C 
ATOM     26  C   UNL     1       5.835   1.189   0.537  1.00  0.00     0.061 C 
ATOM     27  C   UNL     1       5.767  -1.286   0.143  1.00  0.00     0.061 C 
ENDBRANCH   5  16
TORSDOF 3
