REMARK SMILES O=c1cc(-c2ccc(O)c(-c3c(O)cc(O)c4c(=O)cc(-c5ccc(O)cc5)oc34)c2)oc2cc(O)cc(O)c12
REMARK SMILES IDX 21 1 20 2 18 3 19 4 17 5 30 6 29 7 11 8 12 9 14 10 15 11
REMARK SMILES IDX 22 12 25 13 24 14 27 15 23 16 28 17 26 18 10 20 31 21 8 22
REMARK SMILES IDX 5 23 7 24 6 25 9 26 4 28 3 29 32 30 2 31 33 32 1 33 40 34
REMARK SMILES IDX 34 35 38 36 35 37 37 38 39 39 36 41 16 43 13 45
REMARK H PARENT 26 19 9 27 39 40 36 42 16 44 13 46
ROOT
ATOM      1  C   UNL     1      -2.599  -0.980   0.700  1.00  0.00     0.138 C 
ATOM      2  C   UNL     1      -3.424  -1.947   1.123  1.00  0.00     0.100 C 
ATOM      3  C   UNL     1      -3.584  -3.148   0.295  1.00  0.00     0.197 C 
ATOM      4  O   UNL     1      -4.334  -4.060   0.628  1.00  0.00    -0.289 OA
ATOM      5  C   UNL     1      -2.797  -3.228  -0.943  1.00  0.00     0.107 A 
ATOM      6  C   UNL     1      -1.974  -2.152  -1.286  1.00  0.00     0.154 A 
ATOM      7  O   UNL     1      -1.907  -1.024  -0.497  1.00  0.00    -0.455 OA
ATOM      8  C   UNL     1      -1.187  -2.175  -2.464  1.00  0.00     0.071 A 
ATOM      9  C   UNL     1      -1.285  -3.327  -3.271  1.00  0.00     0.131 A 
ATOM     10  C   UNL     1      -2.104  -4.407  -2.931  1.00  0.00     0.094 A 
ATOM     11  C   UNL     1      -2.857  -4.354  -1.766  1.00  0.00     0.134 A 
ENDROOT
BRANCH   1  12
ATOM     12  C   UNL     1      -2.354   0.251   1.480  1.00  0.00     0.018 A 
ATOM     13  C   UNL     1      -1.782   2.593   2.913  1.00  0.00     0.115 A 
ATOM     14  C   UNL     1      -1.946   1.393   3.596  1.00  0.00     0.047 A 
ATOM     15  C   UNL     1      -1.904   2.645   1.532  1.00  0.00     0.047 A 
ATOM     16  C   UNL     1      -2.228   0.225   2.879  1.00  0.00     0.016 A 
ATOM     17  C   UNL     1      -2.182   1.477   0.817  1.00  0.00     0.016 A 
BRANCH  13  18
ATOM     18  O   UNL     1      -1.481   3.748   3.570  1.00  0.00    -0.508 OA
ATOM     19  H   UNL     1      -1.276   3.532   4.495  1.00  0.00     0.293 HD
ENDBRANCH  13  18
ENDBRANCH   1  12
BRANCH   8  20
ATOM     20  C   UNL     1      -0.295  -1.032  -2.809  1.00  0.00     0.032 A 
ATOM     21  C   UNL     1       0.636  -0.561  -1.856  1.00  0.00     0.024 A 
ATOM     22  C   UNL     1      -0.357  -0.334  -4.027  1.00  0.00     0.123 A 
ATOM     23  C   UNL     1       1.431   0.579  -2.075  1.00  0.00     0.018 A 
ATOM     24  C   UNL     1       0.418   0.801  -4.263  1.00  0.00     0.047 A 
ATOM     25  C   UNL     1       1.303   1.260  -3.290  1.00  0.00     0.016 A 
BRANCH  22  26
ATOM     26  O   UNL     1      -1.177  -0.714  -5.055  1.00  0.00    -0.507 OA
ATOM     27  H   UNL     1      -1.213  -1.690  -5.024  1.00  0.00     0.293 HD
ENDBRANCH  22  26
BRANCH  23  28
ATOM     28  C   UNL     1       2.328   1.062  -1.006  1.00  0.00     0.138 C 
ATOM     29  C   UNL     1       3.567   1.506  -1.266  1.00  0.00     0.100 C 
ATOM     30  O   UNL     1       1.775   0.997   0.264  1.00  0.00    -0.456 OA
ATOM     31  C   UNL     1       4.401   1.979  -0.152  1.00  0.00     0.197 C 
ATOM     32  C   UNL     1       2.517   1.445   1.327  1.00  0.00     0.146 A 
ATOM     33  O   UNL     1       5.541   2.394  -0.331  1.00  0.00    -0.289 OA
ATOM     34  C   UNL     1       3.811   1.939   1.191  1.00  0.00     0.107 A 
ATOM     35  C   UNL     1       1.921   1.387   2.586  1.00  0.00     0.094 A 
ATOM     36  C   UNL     1       4.513   2.380   2.318  1.00  0.00     0.134 A 
ATOM     37  C   UNL     1       2.625   1.834   3.701  1.00  0.00     0.123 A 
ATOM     38  C   UNL     1       3.921   2.330   3.578  1.00  0.00     0.093 A 
BRANCH  36  39
ATOM     39  O   UNL     1       5.788   2.875   2.255  1.00  0.00    -0.507 OA
ATOM     40  H   UNL     1       6.079   2.853   1.315  1.00  0.00     0.293 HD
ENDBRANCH  36  39
BRANCH  37  41
ATOM     41  O   UNL     1       2.004   1.768   4.915  1.00  0.00    -0.508 OA
ATOM     42  H   UNL     1       2.624   2.087   5.593  1.00  0.00     0.293 HD
ENDBRANCH  37  41
ENDBRANCH  23  28
ENDBRANCH   8  20
BRANCH  11  43
ATOM     43  O   UNL     1      -3.640  -5.442  -1.492  1.00  0.00    -0.507 OA
ATOM     44  H   UNL     1      -4.130  -5.269  -0.655  1.00  0.00     0.293 HD
ENDBRANCH  11  43
BRANCH   9  45
ATOM     45  O   UNL     1      -0.582  -3.382  -4.448  1.00  0.00    -0.507 OA
ATOM     46  H   UNL     1      -0.570  -4.303  -4.766  1.00  0.00     0.293 HD
ENDBRANCH   9  45
TORSDOF 9
