REMARK SMILES CC1(C)CC[C@]2(C(=O)O)CC[C@]3(C)C(=CC[C@@H]4[C@@]5(C)C[C@@H](O)[C@H](O)C(C)(C)[C@@H]5CC[C@]43C)[C@@H]2[C@@H]1O
REMARK SMILES IDX 21 1 20 2 18 3 19 4 28 5 25 6 23 7 26 8 27 9 29 10 30 11
REMARK SMILES IDX 31 12 17 13 16 14 15 15 14 16 12 17 13 18 11 19 10 20 6 21
REMARK SMILES IDX 33 22 34 23 2 24 1 25 3 26 4 27 5 28 32 29 22 30 24 32 7 34
REMARK SMILES IDX 8 35 9 36 35 38
REMARK H PARENT 22 31 24 33 9 37 35 39
ROOT
ATOM      1  C   UNL     1       4.920   1.908   0.789  1.00  0.00     0.144 C 
ATOM      2  C   UNL     1       3.399   1.830   0.688  1.00  0.00     0.042 C 
ATOM      3  C   UNL     1       2.880   0.694  -0.243  1.00  0.00    -0.023 C 
ATOM      4  C   UNL     1       3.220   1.095  -1.701  1.00  0.00     0.012 C 
ATOM      5  C   UNL     1       3.568  -0.652   0.201  1.00  0.00     0.004 C 
ATOM      6  C   UNL     1       5.139  -0.628   0.323  1.00  0.00    -0.003 C 
ATOM      7  C   UNL     1       5.542   0.575   1.226  1.00  0.00     0.149 C 
ATOM      8  C   UNL     1       5.622  -1.926   1.030  1.00  0.00     0.014 C 
ATOM      9  C   UNL     1       5.872  -0.586  -1.032  1.00  0.00     0.014 C 
ATOM     10  C   UNL     1       2.990  -1.843  -0.592  1.00  0.00     0.005 C 
ATOM     11  C   UNL     1       1.495  -2.011  -0.307  1.00  0.00     0.008 C 
ATOM     12  C   UNL     1       0.624  -0.760  -0.608  1.00  0.00    -0.020 C 
ATOM     13  C   UNL     1       1.312   0.522  -0.001  1.00  0.00     0.006 C 
ATOM     14  C   UNL     1       0.478   1.790  -0.284  1.00  0.00     0.032 C 
ATOM     15  C   UNL     1      -1.007   1.588  -0.268  1.00  0.00    -0.026 C 
ATOM     16  C   UNL     1      -1.654   0.410  -0.131  1.00  0.00    -0.061 C 
ATOM     17  C   UNL     1      -0.872  -0.903   0.046  1.00  0.00    -0.006 C 
ATOM     18  C   UNL     1      -0.800  -1.177   1.578  1.00  0.00     0.017 C 
ATOM     19  C   UNL     1      -1.633  -2.098  -0.597  1.00  0.00     0.013 C 
ATOM     20  C   UNL     1      -3.129  -2.140  -0.286  1.00  0.00     0.020 C 
ATOM     21  C   UNL     1      -3.858  -0.870  -0.774  1.00  0.00     0.077 C 
ATOM     22  C   UNL     1      -3.191   0.421  -0.204  1.00  0.00     0.062 C 
ATOM     23  C   UNL     1      -3.877   0.899   1.110  1.00  0.00     0.128 C 
ATOM     24  C   UNL     1      -5.366   1.306   0.850  1.00  0.00    -0.009 C 
ATOM     25  C   UNL     1      -5.423   2.777   0.382  1.00  0.00     0.014 C 
ATOM     26  C   UNL     1      -6.208   1.204   2.139  1.00  0.00     0.014 C 
ATOM     27  C   UNL     1      -6.010   0.418  -0.251  1.00  0.00     0.010 C 
ATOM     28  C   UNL     1      -5.356  -0.960  -0.362  1.00  0.00     0.020 C 
ATOM     29  C   UNL     1       0.508  -0.647  -2.160  1.00  0.00     0.012 C 
ENDROOT
BRANCH   1  30
ATOM     30  O   UNL     1       5.257   2.908   1.761  1.00  0.00    -0.390 OA
ATOM     31  H   UNL     1       6.225   2.823   1.874  1.00  0.00     0.211 HD
ENDBRANCH   1  30
BRANCH   7  32
ATOM     32  O   UNL     1       6.964   0.773   1.264  1.00  0.00    -0.390 OA
ATOM     33  H   UNL     1       7.351   0.029   1.758  1.00  0.00     0.211 HD
ENDBRANCH   7  32
BRANCH  21  34
ATOM     34  C   UNL     1      -3.843  -0.800  -2.309  1.00  0.00     0.310 C 
ATOM     35  O   UNL     1      -3.759   0.202  -3.002  1.00  0.00    -0.252 OA
BRANCH  34  36
ATOM     36  O   UNL     1      -4.017  -1.993  -2.915  1.00  0.00    -0.481 OA
ATOM     37  H   UNL     1      -4.015  -1.770  -3.869  1.00  0.00     0.296 HD
ENDBRANCH  34  36
ENDBRANCH  21  34
BRANCH  23  38
ATOM     38  O   UNL     1      -3.822  -0.140   2.088  1.00  0.00    -0.392 OA
ATOM     39  H   UNL     1      -3.866   0.282   2.963  1.00  0.00     0.211 HD
ENDBRANCH  23  38
TORSDOF 5
