REMARK SMILES CC(=O)OC1CCC2(C)C(CCC3(C)C2CC=C2C4CC(C)(C)CCC4(C)CCC23C)C1(C)C
REMARK SMILES IDX 4 1 2 2 3 3 1 4 5 5 6 6 32 7 7 8 10 9 8 10 11 11 15 12 12 13
REMARK SMILES IDX 13 14 16 15 30 16 17 17 18 18 29 19 19 20 28 21 26 22 20 23
REMARK SMILES IDX 25 24 21 25 24 26 33 27 34 28 9 29 14 30 31 31 27 32 22 33
REMARK SMILES IDX 23 34
REMARK H PARENT
ROOT
ATOM      1  O   UNL     1       6.114   1.425   0.566  1.00  0.00    -0.462 OA
ENDROOT
BRANCH   1   2
ATOM      2  C   UNL     1       7.354   0.995   0.205  1.00  0.00     0.302 C 
ATOM      3  O   UNL     1       7.603   0.054  -0.533  1.00  0.00    -0.253 OA
ATOM      4  C   UNL     1       8.395   1.853   0.857  1.00  0.00     0.139 C 
ENDBRANCH   1   2
BRANCH   1   5
ATOM      5  C   UNL     1       4.978   0.703   0.035  1.00  0.00     0.182 C 
ATOM      6  C   UNL     1       3.967   1.756  -0.429  1.00  0.00     0.046 C 
ATOM      7  C   UNL     1       4.366  -0.268   1.105  1.00  0.00     0.005 C 
ATOM      8  C   UNL     1       2.680   1.183  -1.047  1.00  0.00     0.011 C 
ATOM      9  C   UNL     1       2.806  -0.370   0.912  1.00  0.00     0.005 C 
ATOM     10  C   UNL     1       2.291  -0.242  -0.556  1.00  0.00    -0.025 C 
ATOM     11  C   UNL     1       2.108  -1.527   1.624  1.00  0.00     0.005 C 
ATOM     12  C   UNL     1       0.730  -0.575  -0.644  1.00  0.00     0.006 C 
ATOM     13  C   UNL     1       0.631  -1.191   1.863  1.00  0.00     0.008 C 
ATOM     14  C   UNL     1      -0.110  -0.479   0.677  1.00  0.00    -0.020 C 
ATOM     15  C   UNL     1       0.008   0.124  -1.812  1.00  0.00     0.032 C 
ATOM     16  C   UNL     1      -1.577  -1.152   0.418  1.00  0.00    -0.006 C 
ATOM     17  C   UNL     1      -1.475  -0.092  -1.850  1.00  0.00    -0.027 C 
ATOM     18  C   UNL     1      -2.241  -0.626  -0.877  1.00  0.00    -0.064 C 
ATOM     19  C   UNL     1      -2.495  -0.866   1.636  1.00  0.00     0.012 C 
ATOM     20  C   UNL     1      -3.765  -0.867  -1.056  1.00  0.00     0.022 C 
ATOM     21  C   UNL     1      -3.926  -1.356   1.460  1.00  0.00     0.008 C 
ATOM     22  C   UNL     1      -4.629  -0.709   0.245  1.00  0.00    -0.026 C 
ATOM     23  C   UNL     1      -4.452  -0.088  -2.219  1.00  0.00     0.015 C 
ATOM     24  C   UNL     1      -4.971   0.779   0.554  1.00  0.00     0.008 C 
ATOM     25  C   UNL     1      -4.769   1.406  -1.925  1.00  0.00    -0.035 C 
ATOM     26  C   UNL     1      -4.437   1.780  -0.467  1.00  0.00     0.007 C 
ATOM     27  C   UNL     1       4.635   0.275   2.537  1.00  0.00     0.015 C 
ATOM     28  C   UNL     1       5.076  -1.637   1.028  1.00  0.00     0.015 C 
ATOM     29  C   UNL     1       2.954  -1.271  -1.523  1.00  0.00     0.012 C 
ATOM     30  C   UNL     1      -0.277   1.027   1.061  1.00  0.00     0.012 C 
ATOM     31  C   UNL     1      -1.475  -2.701   0.236  1.00  0.00     0.017 C 
ATOM     32  C   UNL     1      -5.968  -1.482   0.089  1.00  0.00     0.012 C 
ATOM     33  C   UNL     1      -3.969   2.332  -2.863  1.00  0.00     0.011 C 
ATOM     34  C   UNL     1      -6.264   1.675  -2.209  1.00  0.00     0.011 C 
ENDBRANCH   1   5
TORSDOF 2
