REMARK SMILES O=C1c2c(O)cc(O)cc2OC(c2ccc(O)cc2)C1C1C(=O)c2c(O)cc(O)cc2OC1c1ccc(O)cc1
REMARK SMILES IDX 12 1 11 2 10 3 9 4 7 5 6 6 4 7 3 8 2 9 1 10 20 11 13 12
REMARK SMILES IDX 16 13 15 14 18 15 14 16 19 17 17 18 21 20 33 21 22 22 32 23
REMARK SMILES IDX 24 24 23 25 31 26 25 27 30 28 27 29 28 30 34 31 35 32 40 33
REMARK SMILES IDX 36 34 39 35 37 36 38 37 26 39 29 41 8 43 5 45
REMARK H PARENT 17 19 38 38 26 40 29 42 8 44 5 46
ROOT
ATOM      1  C   UNL     1      -1.953   0.355  -0.052  1.00  0.00     0.215 C 
ATOM      2  O   UNL     1      -3.072  -0.551   0.037  1.00  0.00    -0.484 OA
ATOM      3  C   UNL     1      -3.175  -1.379  -1.048  1.00  0.00     0.138 A 
ATOM      4  C   UNL     1      -4.444  -1.879  -1.335  1.00  0.00     0.093 A 
ATOM      5  C   UNL     1      -4.620  -2.726  -2.425  1.00  0.00     0.123 A 
ATOM      6  C   UNL     1      -3.544  -3.092  -3.229  1.00  0.00     0.093 A 
ATOM      7  C   UNL     1      -2.273  -2.609  -2.925  1.00  0.00     0.133 A 
ATOM      8  C   UNL     1      -2.083  -1.756  -1.830  1.00  0.00     0.102 A 
ATOM      9  C   UNL     1      -0.743  -1.274  -1.446  1.00  0.00     0.178 C 
ATOM     10  O   UNL     1       0.233  -1.619  -2.111  1.00  0.00    -0.293 OA
ATOM     11  C   UNL     1      -0.638  -0.439  -0.183  1.00  0.00     0.122 C 
ENDROOT
BRANCH   1  12
ATOM     12  C   UNL     1      -1.993   1.209   1.204  1.00  0.00    -0.007 A 
ATOM     13  C   UNL     1      -1.999   2.804   3.502  1.00  0.00     0.115 A 
ATOM     14  C   UNL     1      -1.966   3.403   2.249  1.00  0.00     0.046 A 
ATOM     15  C   UNL     1      -2.031   1.420   3.630  1.00  0.00     0.046 A 
ATOM     16  C   UNL     1      -1.966   2.609   1.101  1.00  0.00     0.011 A 
ATOM     17  C   UNL     1      -2.027   0.624   2.482  1.00  0.00     0.011 A 
BRANCH  13  18
ATOM     18  O   UNL     1      -2.001   3.619   4.595  1.00  0.00    -0.508 OA
ATOM     19  H   UNL     1      -2.096   3.070   5.391  1.00  0.00     0.293 HD
ENDBRANCH  13  18
ENDBRANCH   1  12
BRANCH  11  20
ATOM     20  C   UNL     1       0.644   0.439  -0.163  1.00  0.00     0.122 C 
ATOM     21  C   UNL     1       1.954  -0.355   0.016  1.00  0.00     0.215 C 
ATOM     22  C   UNL     1       0.792   1.269  -1.424  1.00  0.00     0.178 C 
ATOM     23  O   UNL     1       3.069   0.551   0.140  1.00  0.00    -0.484 OA
ATOM     24  C   UNL     1       2.145   1.750  -1.764  1.00  0.00     0.102 A 
ATOM     25  O   UNL     1      -0.160   1.612  -2.123  1.00  0.00    -0.293 OA
ATOM     26  C   UNL     1       3.209   1.376  -0.943  1.00  0.00     0.138 A 
ATOM     27  C   UNL     1       2.372   2.599  -2.854  1.00  0.00     0.133 A 
ATOM     28  C   UNL     1       4.487   1.874  -1.189  1.00  0.00     0.093 A 
ATOM     29  C   UNL     1       3.652   3.081  -3.117  1.00  0.00     0.093 A 
ATOM     30  C   UNL     1       4.700   2.717  -2.276  1.00  0.00     0.123 A 
BRANCH  21  31
ATOM     31  C   UNL     1       1.951  -1.204   1.276  1.00  0.00    -0.007 A 
ATOM     32  C   UNL     1       1.941  -0.616   2.552  1.00  0.00     0.011 A 
ATOM     33  C   UNL     1       1.927  -2.605   1.177  1.00  0.00     0.011 A 
ATOM     34  C   UNL     1       1.905  -1.407   3.702  1.00  0.00     0.046 A 
ATOM     35  C   UNL     1       1.888  -3.395   2.327  1.00  0.00     0.046 A 
ATOM     36  C   UNL     1       1.878  -2.791   3.578  1.00  0.00     0.115 A 
BRANCH  36  37
ATOM     37  O   UNL     1       1.843  -3.602   4.673  1.00  0.00    -0.508 OA
ATOM     38  H   UNL     1       1.911  -3.051   5.470  1.00  0.00     0.293 HD
ENDBRANCH  36  37
ENDBRANCH  21  31
BRANCH  27  39
ATOM     39  O   UNL     1       1.379   3.008  -3.703  1.00  0.00    -0.507 OA
ATOM     40  H   UNL     1       0.534   2.605  -3.402  1.00  0.00     0.293 HD
ENDBRANCH  27  39
BRANCH  30  41
ATOM     41  O   UNL     1       5.968   3.172  -2.486  1.00  0.00    -0.508 OA
ATOM     42  H   UNL     1       5.971   3.741  -3.275  1.00  0.00     0.293 HD
ENDBRANCH  30  41
ENDBRANCH  11  20
BRANCH   5  43
ATOM     43  O   UNL     1      -5.880  -3.182  -2.677  1.00  0.00    -0.508 OA
ATOM     44  H   UNL     1      -5.856  -3.753  -3.463  1.00  0.00     0.293 HD
ENDBRANCH   5  43
BRANCH   7  45
ATOM     45  O   UNL     1      -1.252  -3.021  -3.738  1.00  0.00    -0.507 OA
ATOM     46  H   UNL     1      -0.417  -2.617  -3.409  1.00  0.00     0.293 HD
ENDBRANCH   7  45
TORSDOF 9
