REMARK SMILES O=C1C[C@@H](c2ccccc2)Oc2c(Cc3ccccc3O)c(O)cc(O)c21
REMARK SMILES IDX 14 1 13 2 22 3 24 4 25 5 12 6 27 7 11 8 2 9 4 10 3 11 1 12
REMARK SMILES IDX 23 13 26 15 5 17 6 18 10 19 7 20 9 21 8 22 15 23 16 24 20 25
REMARK SMILES IDX 17 26 19 27 18 28 21 29
REMARK H PARENT 23 14 26 16 21 30
ROOT
ATOM      1  C   UNL     1       1.697   0.489  -1.954  1.00  0.00     0.082 C 
ENDROOT
BRANCH   1   2
ATOM      2  C   UNL     1       1.343   1.678  -1.076  1.00  0.00     0.041 A 
ATOM      3  C   UNL     1       2.204   2.779  -0.949  1.00  0.00     0.126 A 
ATOM      4  C   UNL     1       1.891   3.858  -0.120  1.00  0.00     0.093 A 
ATOM      5  C   UNL     1       0.703   3.847   0.605  1.00  0.00     0.133 A 
ATOM      6  C   UNL     1       0.151   1.685  -0.329  1.00  0.00     0.142 A 
ATOM      7  C   UNL     1      -0.170   2.763   0.504  1.00  0.00     0.102 A 
ATOM      8  O   UNL     1      -0.697   0.616  -0.471  1.00  0.00    -0.484 OA
ATOM      9  C   UNL     1      -1.443   2.721   1.256  1.00  0.00     0.174 C 
ATOM     10  C   UNL     1      -1.417   0.329   0.734  1.00  0.00     0.211 C 
ATOM     11  C   UNL     1      -2.314   1.507   1.081  1.00  0.00     0.131 C 
ATOM     12  O   UNL     1      -1.766   3.677   1.959  1.00  0.00    -0.294 OA
BRANCH   3  13
ATOM     13  O   UNL     1       3.379   2.788  -1.649  1.00  0.00    -0.507 OA
ATOM     14  H   UNL     1       3.838   3.629  -1.488  1.00  0.00     0.293 HD
ENDBRANCH   3  13
BRANCH   5  15
ATOM     15  O   UNL     1       0.455   4.936   1.396  1.00  0.00    -0.507 OA
ATOM     16  H   UNL     1      -0.424   4.810   1.822  1.00  0.00     0.293 HD
ENDBRANCH   5  15
BRANCH  10  17
ATOM     17  C   UNL     1      -2.205  -0.948   0.513  1.00  0.00    -0.007 A 
ATOM     18  C   UNL     1      -3.013  -1.117  -0.623  1.00  0.00     0.007 A 
ATOM     19  C   UNL     1      -2.125  -1.995   1.444  1.00  0.00     0.007 A 
ATOM     20  C   UNL     1      -3.719  -2.304  -0.823  1.00  0.00     0.000 A 
ATOM     21  C   UNL     1      -2.833  -3.181   1.242  1.00  0.00     0.000 A 
ATOM     22  C   UNL     1      -3.630  -3.335   0.109  1.00  0.00     0.000 A 
ENDBRANCH  10  17
ENDBRANCH   1   2
BRANCH   1  23
ATOM     23  C   UNL     1       2.073  -0.753  -1.170  1.00  0.00    -0.001 A 
ATOM     24  C   UNL     1       3.250  -0.763  -0.403  1.00  0.00     0.008 A 
ATOM     25  C   UNL     1       1.266  -1.896  -1.157  1.00  0.00     0.119 A 
ATOM     26  C   UNL     1       3.595  -1.879   0.362  1.00  0.00     0.001 A 
ATOM     27  C   UNL     1       1.602  -3.012  -0.391  1.00  0.00     0.046 A 
ATOM     28  C   UNL     1       2.770  -3.001   0.371  1.00  0.00     0.004 A 
BRANCH  25  29
ATOM     29  O   UNL     1       0.127  -1.924  -1.912  1.00  0.00    -0.508 OA
ATOM     30  H   UNL     1      -0.510  -2.518  -1.477  1.00  0.00     0.293 HD
ENDBRANCH  25  29
ENDBRANCH   1  23
TORSDOF 6
