REMARK SMILES Cc1c(O)c(C)c2c(c1O)C(=O)C[C@@H](c1ccccc1)O2
REMARK SMILES IDX 6 1 5 2 7 3 21 4 14 5 13 6 11 7 12 8 8 9 9 10 2 11 3 12 1 13
REMARK SMILES IDX 4 14 15 16 16 17 20 18 17 19 19 20 18 21 10 22
REMARK H PARENT 4 15 10 23
ROOT
ATOM      1  C   UNL     1      -1.199   2.650  -0.431  1.00  0.00     0.052 C 
ATOM      2  C   UNL     1      -1.712   1.240  -0.294  1.00  0.00     0.034 A 
ATOM      3  C   UNL     1      -0.825   0.155  -0.260  1.00  0.00     0.141 A 
ATOM      4  O   UNL     1       0.515   0.429  -0.384  1.00  0.00    -0.484 OA
ATOM      5  C   UNL     1       1.359  -0.567   0.218  1.00  0.00     0.211 C 
ATOM      6  C   UNL     1       1.093  -1.915  -0.435  1.00  0.00     0.131 C 
ATOM      7  C   UNL     1      -0.346  -2.266  -0.194  1.00  0.00     0.174 C 
ATOM      8  O   UNL     1      -0.739  -3.427  -0.099  1.00  0.00    -0.294 OA
ATOM      9  C   UNL     1      -1.313  -1.149  -0.135  1.00  0.00     0.102 A 
ATOM     10  C   UNL     1      -2.688  -1.380   0.012  1.00  0.00     0.136 A 
ATOM     11  C   UNL     1      -3.596  -0.311   0.036  1.00  0.00     0.034 A 
ATOM     12  C   UNL     1      -3.087   0.992  -0.126  1.00  0.00     0.128 A 
ATOM     13  C   UNL     1      -5.071  -0.558   0.212  1.00  0.00     0.052 C 
ENDROOT
BRANCH  12  14
ATOM     14  O   UNL     1      -3.913   2.086  -0.121  1.00  0.00    -0.507 OA
ATOM     15  H   UNL     1      -4.841   1.805  -0.093  1.00  0.00     0.293 HD
ENDBRANCH  12  14
BRANCH   5  16
ATOM     16  C   UNL     1       2.787  -0.055   0.121  1.00  0.00    -0.007 A 
ATOM     17  C   UNL     1       3.773  -0.650  -0.681  1.00  0.00     0.007 A 
ATOM     18  C   UNL     1       3.140   1.084   0.869  1.00  0.00     0.007 A 
ATOM     19  C   UNL     1       5.070  -0.130  -0.723  1.00  0.00     0.000 A 
ATOM     20  C   UNL     1       4.435   1.602   0.826  1.00  0.00     0.000 A 
ATOM     21  C   UNL     1       5.401   0.994   0.030  1.00  0.00     0.000 A 
ENDBRANCH   5  16
BRANCH  10  22
ATOM     22  O   UNL     1      -3.192  -2.652   0.135  1.00  0.00    -0.507 OA
ATOM     23  H   UNL     1      -2.447  -3.292   0.080  1.00  0.00     0.293 HD
ENDBRANCH  10  22
TORSDOF 3
