REMARK SMILES CC(C)=CCc1cc(-c2coc3c(CC=C(C)C)c(O)ccc3c2=O)ccc1O
REMARK SMILES IDX 9 1 10 2 11 3 12 4 23 5 24 6 25 7 22 8 21 9 19 10 13 11 8 12
REMARK SMILES IDX 6 13 7 14 28 15 27 16 26 17 5 18 4 19 2 20 1 21 3 22 29 23
REMARK SMILES IDX 14 25 15 26 16 27 17 28 18 29 20 30
REMARK H PARENT 29 24 20 31
ROOT
ATOM      1  C   UNL     1      -0.031  -1.386  -0.910  1.00  0.00     0.065 C 
ATOM      2  C   UNL     1      -0.615  -0.893   0.193  1.00  0.00     0.208 C 
ATOM      3  O   UNL     1      -1.934  -1.013   0.553  1.00  0.00    -0.463 OA
ATOM      4  C   UNL     1      -2.782  -1.697  -0.287  1.00  0.00     0.144 A 
ATOM      5  C   UNL     1      -2.323  -2.282  -1.470  1.00  0.00     0.066 A 
ATOM      6  C   UNL     1      -0.898  -2.166  -1.836  1.00  0.00     0.200 C 
ATOM      7  O   UNL     1      -0.472  -2.692  -2.857  1.00  0.00    -0.288 OA
ATOM      8  C   UNL     1      -3.205  -2.973  -2.304  1.00  0.00     0.020 A 
ATOM      9  C   UNL     1      -4.549  -3.065  -1.955  1.00  0.00     0.047 A 
ATOM     10  C   UNL     1      -5.011  -2.472  -0.779  1.00  0.00     0.122 A 
ATOM     11  C   UNL     1      -4.139  -1.792   0.088  1.00  0.00     0.041 A 
ENDROOT
BRANCH   1  12
ATOM     12  C   UNL     1       1.409  -1.182  -1.152  1.00  0.00    -0.011 A 
ATOM     13  C   UNL     1       3.358   0.304  -1.281  1.00  0.00    -0.002 A 
ATOM     14  C   UNL     1       1.983   0.098  -1.063  1.00  0.00     0.016 A 
ATOM     15  C   UNL     1       4.155  -0.802  -1.592  1.00  0.00     0.119 A 
ATOM     16  C   UNL     1       3.603  -2.077  -1.695  1.00  0.00     0.047 A 
ATOM     17  C   UNL     1       2.236  -2.264  -1.477  1.00  0.00     0.013 A 
BRANCH  13  18
ATOM     18  C   UNL     1       3.936   1.695  -1.153  1.00  0.00     0.066 C 
BRANCH  18  19
ATOM     19  C   UNL     1       4.192   2.081   0.281  1.00  0.00    -0.023 C 
ATOM     20  C   UNL     1       5.377   2.274   0.894  1.00  0.00    -0.080 C 
ATOM     21  C   UNL     1       5.434   2.675   2.345  1.00  0.00     0.039 C 
ATOM     22  C   UNL     1       6.725   2.106   0.249  1.00  0.00     0.039 C 
ENDBRANCH  18  19
ENDBRANCH  13  18
BRANCH  15  23
ATOM     23  O   UNL     1       5.492  -0.621  -1.807  1.00  0.00    -0.508 OA
ATOM     24  H   UNL     1       5.896  -1.482  -2.004  1.00  0.00     0.293 HD
ENDBRANCH  15  23
ENDBRANCH   1  12
BRANCH  11  25
ATOM     25  C   UNL     1      -4.612  -1.153   1.376  1.00  0.00     0.070 C 
BRANCH  25  26
ATOM     26  C   UNL     1      -5.065   0.268   1.171  1.00  0.00    -0.023 C 
ATOM     27  C   UNL     1      -4.549   1.394   1.707  1.00  0.00    -0.080 C 
ATOM     28  C   UNL     1      -5.143   2.739   1.375  1.00  0.00     0.039 C 
ATOM     29  C   UNL     1      -3.375   1.459   2.644  1.00  0.00     0.039 C 
ENDBRANCH  25  26
ENDBRANCH  11  25
BRANCH  10  30
ATOM     30  O   UNL     1      -6.352  -2.603  -0.550  1.00  0.00    -0.508 OA
ATOM     31  H   UNL     1      -6.631  -2.001   0.156  1.00  0.00     0.293 HD
ENDBRANCH  10  30
TORSDOF 7
