REMARK SMILES COc1cc(-c2cc3ccc(O)cc3o2)c(OC)cc1O
REMARK SMILES IDX 6 1 15 2 14 3 8 4 7 5 9 6 10 7 11 8 13 9 5 10 16 11 19 12
REMARK SMILES IDX 20 13 4 14 3 15 17 16 18 17 21 18 2 20 1 21 12 22
REMARK H PARENT 21 19 12 23
ROOT
ATOM      1  C   UNL     1       0.556  -0.257  -0.163  1.00  0.00     0.139 A 
ATOM      2  O   UNL     1       1.168   0.847   0.373  1.00  0.00    -0.456 OA
ATOM      3  C   UNL     1       2.496   0.759   0.092  1.00  0.00     0.138 A 
ATOM      4  C   UNL     1       2.759  -0.395  -0.633  1.00  0.00     0.021 A 
ATOM      5  C   UNL     1       1.506  -1.041  -0.793  1.00  0.00     0.059 A 
ATOM      6  C   UNL     1       4.084  -0.659  -1.022  1.00  0.00     0.016 A 
ATOM      7  C   UNL     1       5.083   0.255  -0.658  1.00  0.00     0.047 A 
ATOM      8  C   UNL     1       4.768   1.399   0.073  1.00  0.00     0.119 A 
ATOM      9  C   UNL     1       3.463   1.688   0.471  1.00  0.00     0.093 A 
ENDROOT
BRANCH   1  10
ATOM     10  C   UNL     1      -0.896  -0.346   0.041  1.00  0.00     0.063 A 
ATOM     11  C   UNL     1      -1.592  -1.578   0.002  1.00  0.00     0.133 A 
ATOM     12  C   UNL     1      -2.979  -1.593   0.189  1.00  0.00     0.097 A 
ATOM     13  C   UNL     1      -3.661  -0.403   0.418  1.00  0.00     0.161 A 
ATOM     14  C   UNL     1      -1.621   0.845   0.278  1.00  0.00     0.066 A 
ATOM     15  C   UNL     1      -3.001   0.824   0.469  1.00  0.00     0.161 A 
BRANCH  11  16
ATOM     16  O   UNL     1      -0.848  -2.712  -0.213  1.00  0.00    -0.496 OA
ATOM     17  C   UNL     1      -1.515  -3.966  -0.155  1.00  0.00     0.278 C 
ENDBRANCH  11  16
BRANCH  13  18
ATOM     18  O   UNL     1      -5.017  -0.463   0.597  1.00  0.00    -0.504 OA
ATOM     19  H   UNL     1      -5.294   0.464   0.742  1.00  0.00     0.293 HD
ENDBRANCH  13  18
BRANCH  15  20
ATOM     20  O   UNL     1      -3.807   1.907   0.703  1.00  0.00    -0.493 OA
ATOM     21  C   UNL     1      -3.163   3.175   0.780  1.00  0.00     0.278 C 
ENDBRANCH  15  20
ENDBRANCH   1  10
BRANCH   8  22
ATOM     22  O   UNL     1       5.798   2.240   0.389  1.00  0.00    -0.508 OA
ATOM     23  H   UNL     1       5.444   2.984   0.905  1.00  0.00     0.293 HD
ENDBRANCH   8  22
TORSDOF 5
