REMARK SMILES COc1ccc([C@@H]2CC(=O)c3c(O)cc(O)cc3O2)cc1O
REMARK SMILES IDX 7 1 8 2 9 3 10 4 11 5 18 6 19 7 17 8 15 9 14 10 12 11 6 12
REMARK SMILES IDX 3 13 4 14 21 15 5 16 20 17 2 18 1 19 22 20 13 22 16 24
REMARK H PARENT 22 21 13 23 16 25
ROOT
ATOM      1  C   UNL     1       0.472   0.072  -2.084  1.00  0.00     0.211 C 
ATOM      2  C   UNL     1       1.197  -1.222  -2.416  1.00  0.00     0.131 C 
ATOM      3  C   UNL     1       1.881  -1.766  -1.192  1.00  0.00     0.174 C 
ATOM      4  O   UNL     1       2.052  -2.974  -1.068  1.00  0.00    -0.294 OA
ATOM      5  C   UNL     1       2.383  -0.762  -0.217  1.00  0.00     0.102 A 
ATOM      6  C   UNL     1       2.130   0.589  -0.486  1.00  0.00     0.138 A 
ATOM      7  O   UNL     1       1.404   1.038  -1.561  1.00  0.00    -0.484 OA
ATOM      8  C   UNL     1       2.639   1.589   0.347  1.00  0.00     0.093 A 
ATOM      9  C   UNL     1       3.373   1.232   1.470  1.00  0.00     0.123 A 
ATOM     10  C   UNL     1       3.614  -0.104   1.770  1.00  0.00     0.093 A 
ATOM     11  C   UNL     1       3.123  -1.102   0.924  1.00  0.00     0.133 A 
ENDROOT
BRANCH   1  12
ATOM     12  C   UNL     1      -0.786   0.017  -1.223  1.00  0.00    -0.003 A 
ATOM     13  C   UNL     1      -3.152   0.052   0.338  1.00  0.00     0.160 A 
ATOM     14  C   UNL     1      -2.583   1.247  -0.091  1.00  0.00     0.051 A 
ATOM     15  C   UNL     1      -2.534  -1.149  -0.025  1.00  0.00     0.158 A 
ATOM     16  C   UNL     1      -1.416   1.227  -0.866  1.00  0.00     0.011 A 
ATOM     17  C   UNL     1      -1.372  -1.180  -0.794  1.00  0.00     0.057 A 
BRANCH  13  18
ATOM     18  O   UNL     1      -4.286  -0.083   1.095  1.00  0.00    -0.493 OA
ATOM     19  C   UNL     1      -4.932   1.121   1.493  1.00  0.00     0.278 C 
ENDBRANCH  13  18
BRANCH  15  20
ATOM     20  O   UNL     1      -3.072  -2.344   0.372  1.00  0.00    -0.504 OA
ATOM     21  H   UNL     1      -3.859  -2.104   0.899  1.00  0.00     0.293 HD
ENDBRANCH  15  20
ENDBRANCH   1  12
BRANCH  11  22
ATOM     22  O   UNL     1       3.387  -2.406   1.229  1.00  0.00    -0.507 OA
ATOM     23  H   UNL     1       3.880  -2.464   2.063  1.00  0.00     0.293 HD
ENDBRANCH  11  22
BRANCH   9  24
ATOM     24  O   UNL     1       3.880   2.172   2.318  1.00  0.00    -0.508 OA
ATOM     25  H   UNL     1       3.641   3.055   1.991  1.00  0.00     0.293 HD
ENDBRANCH   9  24
TORSDOF 5
