REMARK SMILES CC(C)=CCc1c(O)ccc(C(=O)/C=C/c2ccc(O)cc2)c1O
REMARK SMILES IDX 12 1 13 2 11 3 6 4 7 5 23 6 9 7 10 8 5 9 4 10 2 11 1 12 3 13
REMARK SMILES IDX 8 14 24 16 14 18 15 19 16 20 17 21 22 22 18 23 21 24 19 25
REMARK SMILES IDX 20 26
REMARK H PARENT 8 15 24 17 20 27
ROOT
ATOM      1  C   UNL     1       1.248  -0.694   0.395  1.00  0.00     0.189 C 
ATOM      2  O   UNL     1       1.118  -1.612   1.203  1.00  0.00    -0.289 OA
ENDROOT
BRANCH   1   3
ATOM      3  C   UNL     1       0.029  -0.057  -0.176  1.00  0.00     0.064 A 
ATOM      4  C   UNL     1      -2.365  -0.214  -0.720  1.00  0.00     0.040 A 
ATOM      5  C   UNL     1      -2.293   1.090  -1.230  1.00  0.00     0.122 A 
ATOM      6  C   UNL     1      -1.192  -0.765  -0.170  1.00  0.00     0.133 A 
ATOM      7  C   UNL     1      -1.099   1.808  -1.228  1.00  0.00     0.047 A 
ATOM      8  C   UNL     1       0.060   1.242  -0.699  1.00  0.00     0.020 A 
BRANCH   4   9
ATOM      9  C   UNL     1      -3.653  -1.012  -0.755  1.00  0.00     0.070 C 
BRANCH   9  10
ATOM     10  C   UNL     1      -4.616  -0.591   0.325  1.00  0.00    -0.023 C 
ATOM     11  C   UNL     1      -5.894  -0.181   0.200  1.00  0.00    -0.080 C 
ATOM     12  C   UNL     1      -6.659  -0.073  -1.091  1.00  0.00     0.039 C 
ATOM     13  C   UNL     1      -6.694   0.201   1.420  1.00  0.00     0.039 C 
ENDBRANCH   9  10
ENDBRANCH   4   9
BRANCH   5  14
ATOM     14  O   UNL     1      -3.375   1.746  -1.747  1.00  0.00    -0.508 OA
ATOM     15  H   UNL     1      -4.183   1.324  -1.406  1.00  0.00     0.293 HD
ENDBRANCH   5  14
BRANCH   6  16
ATOM     16  O   UNL     1      -1.284  -2.024   0.375  1.00  0.00    -0.507 OA
ATOM     17  H   UNL     1      -0.452  -2.212   0.866  1.00  0.00     0.293 HD
ENDBRANCH   6  16
ENDBRANCH   1   3
BRANCH   1  18
ATOM     18  C   UNL     1       2.587  -0.240  -0.067  1.00  0.00     0.053 C 
ATOM     19  C   UNL     1       3.686  -0.671   0.571  1.00  0.00     0.012 C 
BRANCH  19  20
ATOM     20  C   UNL     1       5.054  -0.313   0.175  1.00  0.00    -0.025 A 
ATOM     21  C   UNL     1       6.058  -1.286   0.263  1.00  0.00     0.012 A 
ATOM     22  C   UNL     1       5.399   0.982  -0.237  1.00  0.00     0.012 A 
ATOM     23  C   UNL     1       7.376  -0.978  -0.081  1.00  0.00     0.047 A 
ATOM     24  C   UNL     1       6.719   1.293  -0.580  1.00  0.00     0.047 A 
ATOM     25  C   UNL     1       7.696   0.306  -0.502  1.00  0.00     0.115 A 
BRANCH  25  26
ATOM     26  O   UNL     1       8.995   0.564  -0.826  1.00  0.00    -0.508 OA
ATOM     27  H   UNL     1       9.071   1.494  -1.093  1.00  0.00     0.293 HD
ENDBRANCH  25  26
ENDBRANCH  19  20
ENDBRANCH   1  18
TORSDOF 8
