REMARK SMILES O=C1C[C@@H](c2ccccc2)Oc2cc(O)c(Cc3ccccc3O)c(O)c21
REMARK SMILES IDX 17 1 16 2 1 3 2 4 3 5 27 6 4 7 12 8 25 9 11 10 13 11 14 12
REMARK SMILES IDX 5 13 6 14 10 15 7 16 9 17 8 18 26 19 15 21 18 23 19 24 23 25
REMARK SMILES IDX 20 26 22 27 21 28 24 29
REMARK H PARENT 26 20 15 22 24 30
ROOT
ATOM      1  C   UNL     1       3.400  -1.052   0.764  1.00  0.00     0.082 C 
ENDROOT
BRANCH   1   2
ATOM      2  C   UNL     1       1.915  -0.880   0.496  1.00  0.00     0.041 A 
ATOM      3  O   UNL     1      -0.648   1.523   2.865  1.00  0.00    -0.294 OA
ATOM      4  C   UNL     1      -1.116   0.953   1.881  1.00  0.00     0.174 C 
ATOM      5  C   UNL     1      -2.530   1.152   1.421  1.00  0.00     0.131 C 
ATOM      6  C   UNL     1      -0.258   0.079   1.056  1.00  0.00     0.102 A 
ATOM      7  C   UNL     1      -2.995  -0.136   0.758  1.00  0.00     0.211 C 
ATOM      8  C   UNL     1      -0.836  -0.562  -0.040  1.00  0.00     0.138 A 
ATOM      9  C   UNL     1       1.109  -0.084   1.329  1.00  0.00     0.137 A 
ATOM     10  O   UNL     1      -2.163  -0.460  -0.367  1.00  0.00    -0.484 OA
ATOM     11  C   UNL     1      -0.049  -1.338  -0.886  1.00  0.00     0.094 A 
ATOM     12  C   UNL     1       1.310  -1.496  -0.612  1.00  0.00     0.126 A 
BRANCH   7  13
ATOM     13  C   UNL     1      -4.431  -0.004   0.285  1.00  0.00    -0.007 A 
ATOM     14  C   UNL     1      -5.478  -0.508   1.072  1.00  0.00     0.007 A 
ATOM     15  C   UNL     1      -4.747   0.650  -0.917  1.00  0.00     0.007 A 
ATOM     16  C   UNL     1      -6.806  -0.371   0.661  1.00  0.00     0.000 A 
ATOM     17  C   UNL     1      -6.074   0.786  -1.326  1.00  0.00     0.000 A 
ATOM     18  C   UNL     1      -7.103   0.275  -0.537  1.00  0.00     0.000 A 
ENDBRANCH   7  13
BRANCH   9  19
ATOM     19  O   UNL     1       1.701   0.534   2.402  1.00  0.00    -0.507 OA
ATOM     20  H   UNL     1       1.020   1.057   2.882  1.00  0.00     0.293 HD
ENDBRANCH   9  19
BRANCH  12  21
ATOM     21  O   UNL     1       2.072  -2.280  -1.432  1.00  0.00    -0.507 OA
ATOM     22  H   UNL     1       1.546  -2.561  -2.198  1.00  0.00     0.293 HD
ENDBRANCH  12  21
ENDBRANCH   1   2
BRANCH   1  23
ATOM     23  C   UNL     1       4.301  -0.180  -0.089  1.00  0.00    -0.001 A 
ATOM     24  C   UNL     1       4.180   1.220  -0.038  1.00  0.00     0.008 A 
ATOM     25  C   UNL     1       5.293  -0.725  -0.914  1.00  0.00     0.119 A 
ATOM     26  C   UNL     1       5.004   2.042  -0.809  1.00  0.00     0.001 A 
ATOM     27  C   UNL     1       6.120   0.093  -1.688  1.00  0.00     0.046 A 
ATOM     28  C   UNL     1       5.971   1.479  -1.637  1.00  0.00     0.004 A 
BRANCH  25  29
ATOM     29  O   UNL     1       5.466  -2.080  -0.950  1.00  0.00    -0.508 OA
ATOM     30  H   UNL     1       6.142  -2.292  -1.612  1.00  0.00     0.293 HD
ENDBRANCH  25  29
ENDBRANCH   1  23
TORSDOF 6
