REMARK SMILES O=c1cc(-c2ccccc2)oc2c1ccc1occc12
REMARK SMILES IDX 1 1 2 2 3 3 4 4 11 5 12 6 13 7 14 8 15 9 16 10 20 11 19 12
REMARK SMILES IDX 18 13 17 14 5 15 6 16 10 17 7 18 9 19 8 20
REMARK H PARENT
ROOT
ATOM      1  O   UNL     1      -0.858  -3.725  -0.523  1.00  0.00    -0.289 OA
ATOM      2  C   UNL     1      -0.662  -2.525  -0.379  1.00  0.00     0.193 C 
ATOM      3  C   UNL     1       0.705  -1.978  -0.383  1.00  0.00     0.100 C 
ATOM      4  C   UNL     1       0.904  -0.660  -0.224  1.00  0.00     0.138 C 
ATOM      5  O   UNL     1      -0.139   0.244  -0.052  1.00  0.00    -0.455 OA
ATOM      6  C   UNL     1      -1.434  -0.215  -0.041  1.00  0.00     0.149 A 
ATOM      7  C   UNL     1      -1.759  -1.566  -0.197  1.00  0.00     0.066 A 
ATOM      8  C   UNL     1      -3.088  -2.010  -0.183  1.00  0.00     0.020 A 
ATOM      9  C   UNL     1      -4.142  -1.106  -0.010  1.00  0.00     0.049 A 
ATOM     10  C   UNL     1      -3.791   0.233   0.144  1.00  0.00     0.137 A 
ATOM     11  C   UNL     1      -2.483   0.708   0.134  1.00  0.00     0.064 A 
ATOM     12  C   UNL     1      -2.586   2.114   0.320  1.00  0.00     0.054 A 
ATOM     13  C   UNL     1      -3.928   2.397   0.429  1.00  0.00     0.196 A 
ATOM     14  O   UNL     1      -4.666   1.261   0.323  1.00  0.00    -0.464 OA
ENDROOT
BRANCH   4  15
ATOM     15  C   UNL     1       2.256  -0.028  -0.216  1.00  0.00     0.017 A 
ATOM     16  C   UNL     1       2.381   1.364  -0.043  1.00  0.00     0.012 A 
ATOM     17  C   UNL     1       3.445  -0.761  -0.374  1.00  0.00     0.012 A 
ATOM     18  C   UNL     1       3.631   1.993  -0.030  1.00  0.00     0.001 A 
ATOM     19  C   UNL     1       4.698  -0.134  -0.361  1.00  0.00     0.001 A 
ATOM     20  C   UNL     1       4.790   1.242  -0.189  1.00  0.00     0.000 A 
ENDBRANCH   4  15
TORSDOF 1
