REMARK SMILES CC(C)=CCc1c2c(c(O)c3c1OC(c1ccc(O)cc1)CC3=O)C=CC(C)(C)O2
REMARK SMILES IDX 6 1 12 2 13 3 14 4 22 5 23 6 24 7 11 8 9 9 8 10 7 11 30 12
REMARK SMILES IDX 27 13 28 14 29 15 26 16 25 17 5 18 4 19 2 20 1 21 3 22 15 23
REMARK SMILES IDX 16 24 21 25 17 26 20 27 18 28 19 29 10 31
REMARK H PARENT 19 30 10 32
ROOT
ATOM      1  C   UNL     1      -1.068  -0.502   0.521  1.00  0.00     0.042 A 
ATOM      2  C   UNL     1       0.234  -1.020   0.417  1.00  0.00     0.142 A 
ATOM      3  O   UNL     1       1.276  -0.177   0.718  1.00  0.00    -0.484 OA
ATOM      4  C   UNL     1       2.491  -0.519   0.037  1.00  0.00     0.211 C 
ATOM      5  C   UNL     1       2.923  -1.925   0.415  1.00  0.00     0.131 C 
ATOM      6  C   UNL     1       1.826  -2.868   0.014  1.00  0.00     0.174 C 
ATOM      7  O   UNL     1       2.038  -4.039  -0.293  1.00  0.00    -0.294 OA
ATOM      8  C   UNL     1       0.439  -2.355   0.051  1.00  0.00     0.103 A 
ATOM      9  C   UNL     1      -0.652  -3.181  -0.247  1.00  0.00     0.141 A 
ATOM     10  C   UNL     1      -1.958  -2.675  -0.179  1.00  0.00     0.060 A 
ATOM     11  C   UNL     1      -2.158  -1.338   0.201  1.00  0.00     0.138 A 
ATOM     12  O   UNL     1      -3.404  -0.777   0.305  1.00  0.00    -0.483 OA
ATOM     13  C   UNL     1      -4.549  -1.483  -0.214  1.00  0.00     0.122 C 
ATOM     14  C   UNL     1      -4.976  -0.764  -1.498  1.00  0.00     0.061 C 
ATOM     15  C   UNL     1      -5.646  -1.338   0.848  1.00  0.00     0.061 C 
ATOM     16  C   UNL     1      -4.324  -2.945  -0.499  1.00  0.00     0.021 C 
ATOM     17  C   UNL     1      -3.115  -3.511  -0.479  1.00  0.00     0.015 C 
ENDROOT
BRANCH   1  18
ATOM     18  C   UNL     1      -1.290   0.949   0.907  1.00  0.00     0.070 C 
BRANCH  18  19
ATOM     19  C   UNL     1      -1.314   1.855  -0.297  1.00  0.00    -0.023 C 
ATOM     20  C   UNL     1      -0.447   2.832  -0.631  1.00  0.00    -0.080 C 
ATOM     21  C   UNL     1       0.773   3.223   0.157  1.00  0.00     0.039 C 
ATOM     22  C   UNL     1      -0.652   3.639  -1.887  1.00  0.00     0.039 C 
ENDBRANCH  18  19
ENDBRANCH   1  18
BRANCH   4  23
ATOM     23  C   UNL     1       3.559   0.493   0.407  1.00  0.00    -0.007 A 
ATOM     24  C   UNL     1       4.434   0.984  -0.576  1.00  0.00     0.011 A 
ATOM     25  C   UNL     1       3.712   0.941   1.730  1.00  0.00     0.011 A 
ATOM     26  C   UNL     1       5.430   1.907  -0.248  1.00  0.00     0.046 A 
ATOM     27  C   UNL     1       4.707   1.863   2.057  1.00  0.00     0.046 A 
ATOM     28  C   UNL     1       5.557   2.339   1.068  1.00  0.00     0.115 A 
BRANCH  28  29
ATOM     29  O   UNL     1       6.514   3.238   1.432  1.00  0.00    -0.508 OA
ATOM     30  H   UNL     1       7.026   3.484   0.644  1.00  0.00     0.293 HD
ENDBRANCH  28  29
ENDBRANCH   4  23
BRANCH   9  31
ATOM     31  O   UNL     1      -0.479  -4.497  -0.609  1.00  0.00    -0.506 OA
ATOM     32  H   UNL     1       0.482  -4.706  -0.588  1.00  0.00     0.293 HD
ENDBRANCH   9  31
TORSDOF 5
