REMARK SMILES C[C@@H]1O[C@@H](O[C@H]2[C@H](Oc3cc(O)c4c(=O)cc(-c5ccc(O)c(O)c5)oc4c3)O[C@H](CO)[C@@H](O)[C@@H]2O)[C@H](O)[C@H](O)[C@H]1O
REMARK SMILES IDX 30 1 29 2 7 3 6 4 35 5 33 6 31 7 32 8 34 10 8 12 9 13 10 14
REMARK SMILES IDX 28 15 11 16 27 17 13 18 26 19 14 20 17 21 16 22 15 23 12 24
REMARK SMILES IDX 18 26 19 27 25 28 20 29 23 30 21 31 24 32 22 34 36 36 5 38
REMARK SMILES IDX 4 39 3 40 37 41 2 42 39 43 41 44 1 45 38 46 40 48 42 50
REMARK H PARENT 32 9 34 11 12 25 24 33 22 35 36 37 38 47 40 49 42 51
ROOT
ATOM      1  C   UNL     1      -2.469  -3.430   3.259  1.00  0.00     0.179 C 
ATOM      2  O   UNL     1      -1.338  -3.204   2.406  1.00  0.00    -0.332 OA
ATOM      3  C   UNL     1      -1.421  -1.962   1.697  1.00  0.00     0.339 C 
ATOM      4  C   UNL     1      -2.681  -1.906   0.807  1.00  0.00     0.221 C 
ATOM      5  C   UNL     1      -3.928  -2.245   1.625  1.00  0.00     0.181 C 
ATOM      6  C   UNL     1      -3.736  -3.548   2.403  1.00  0.00     0.177 C 
ENDROOT
BRANCH   1   7
ATOM      7  C   UNL     1      -2.205  -4.686   4.104  1.00  0.00     0.191 C 
BRANCH   7   8
ATOM      8  O   UNL     1      -2.449  -5.874   3.354  1.00  0.00    -0.394 OA
ATOM      9  H   UNL     1      -1.936  -6.587   3.776  1.00  0.00     0.210 HD
ENDBRANCH   7   8
ENDBRANCH   1   7
BRANCH   6  10
ATOM     10  O   UNL     1      -4.906  -3.779   3.194  1.00  0.00    -0.387 OA
ATOM     11  H   UNL     1      -4.871  -4.722   3.449  1.00  0.00     0.211 HD
ENDBRANCH   6  10
BRANCH   3  12
ATOM     12  O   UNL     1      -0.285  -1.837   0.822  1.00  0.00    -0.462 OA
BRANCH  12  13
ATOM     13  C   UNL     1       0.749  -1.099   1.324  1.00  0.00     0.130 A 
ATOM     14  C   UNL     1       1.226  -1.213   2.631  1.00  0.00     0.093 A 
ATOM     15  C   UNL     1       1.367  -0.228   0.425  1.00  0.00     0.094 A 
ATOM     16  C   UNL     1       2.294  -0.420   3.046  1.00  0.00     0.134 A 
ATOM     17  C   UNL     1       2.433   0.566   0.845  1.00  0.00     0.146 A 
ATOM     18  C   UNL     1       2.894   0.475   2.154  1.00  0.00     0.107 A 
ATOM     19  O   UNL     1       2.976   1.420  -0.082  1.00  0.00    -0.456 OA
ATOM     20  C   UNL     1       4.014   1.334   2.555  1.00  0.00     0.197 C 
ATOM     21  C   UNL     1       4.027   2.236   0.306  1.00  0.00     0.138 C 
ATOM     22  C   UNL     1       4.557   2.247   1.539  1.00  0.00     0.100 C 
ATOM     23  O   UNL     1       4.472   1.290   3.692  1.00  0.00    -0.289 OA
BRANCH  16  24
ATOM     24  O   UNL     1       2.705  -0.566   4.343  1.00  0.00    -0.507 OA
ATOM     25  H   UNL     1       3.461   0.046   4.496  1.00  0.00     0.293 HD
ENDBRANCH  16  24
BRANCH  21  26
ATOM     26  C   UNL     1       4.513   3.135  -0.759  1.00  0.00     0.021 A 
ATOM     27  C   UNL     1       3.590   3.783  -1.597  1.00  0.00     0.016 A 
ATOM     28  C   UNL     1       5.885   3.341  -0.978  1.00  0.00     0.062 A 
ATOM     29  C   UNL     1       4.021   4.632  -2.621  1.00  0.00     0.051 A 
ATOM     30  C   UNL     1       6.312   4.188  -2.002  1.00  0.00     0.158 A 
ATOM     31  C   UNL     1       5.384   4.833  -2.818  1.00  0.00     0.157 A 
BRANCH  30  32
ATOM     32  O   UNL     1       7.647   4.393  -2.218  1.00  0.00    -0.504 OA
ATOM     33  H   UNL     1       8.161   3.856  -1.597  1.00  0.00     0.293 HD
ENDBRANCH  30  32
BRANCH  31  34
ATOM     34  O   UNL     1       5.824   5.658  -3.814  1.00  0.00    -0.504 OA
ATOM     35  H   UNL     1       5.061   6.009  -4.297  1.00  0.00     0.293 HD
ENDBRANCH  31  34
ENDBRANCH  21  26
ENDBRANCH  12  13
ENDBRANCH   3  12
BRANCH   5  36
ATOM     36  O   UNL     1      -5.058  -2.374   0.735  1.00  0.00    -0.387 OA
ATOM     37  H   UNL     1      -5.775  -2.732   1.299  1.00  0.00     0.211 HD
ENDBRANCH   5  36
BRANCH   4  38
ATOM     38  O   UNL     1      -2.871  -0.576   0.291  1.00  0.00    -0.337 OA
BRANCH  38  39
ATOM     39  C   UNL     1      -2.416  -0.408  -1.053  1.00  0.00     0.282 C 
ATOM     40  O   UNL     1      -1.670   0.811  -1.100  1.00  0.00    -0.344 OA
ATOM     41  C   UNL     1      -3.654  -0.390  -1.971  1.00  0.00     0.202 C 
ATOM     42  C   UNL     1      -1.698   1.514  -2.349  1.00  0.00     0.150 C 
ATOM     43  C   UNL     1      -3.236  -0.147  -3.427  1.00  0.00     0.179 C 
ATOM     44  C   UNL     1      -1.885   0.570  -3.542  1.00  0.00     0.174 C 
ATOM     45  C   UNL     1      -0.402   2.314  -2.445  1.00  0.00     0.041 C 
BRANCH  41  46
ATOM     46  O   UNL     1      -4.423  -1.604  -1.913  1.00  0.00    -0.385 OA
ATOM     47  H   UNL     1      -4.708  -1.715  -0.976  1.00  0.00     0.211 HD
ENDBRANCH  41  46
BRANCH  43  48
ATOM     48  O   UNL     1      -3.145  -1.390  -4.147  1.00  0.00    -0.387 OA
ATOM     49  H   UNL     1      -3.817  -1.967  -3.722  1.00  0.00     0.211 HD
ENDBRANCH  43  48
BRANCH  44  50
ATOM     50  O   UNL     1      -1.823   1.264  -4.790  1.00  0.00    -0.388 OA
ATOM     51  H   UNL     1      -2.002   0.588  -5.474  1.00  0.00     0.211 HD
ENDBRANCH  44  50
ENDBRANCH  38  39
ENDBRANCH   4  38
TORSDOF 15
