REMARK SMILES COc1ccc2c(c1)O[C@@H]1c3ccc(O)cc3OC[C@H]21
REMARK SMILES IDX 3 1 4 2 5 3 6 4 7 5 8 6 9 7 10 8 20 9 19 10 18 11 17 12
REMARK SMILES IDX 11 13 12 14 13 15 14 16 16 17 2 18 1 19 15 20
REMARK H PARENT 15 21
ROOT
ATOM      1  C   UNL     1       3.585   0.141   0.562  1.00  0.00     0.122 A 
ATOM      2  C   UNL     1       3.542  -0.450  -0.714  1.00  0.00     0.047 A 
ATOM      3  C   UNL     1       2.335  -0.554  -1.417  1.00  0.00     0.012 A 
ATOM      4  C   UNL     1       1.190  -0.051  -0.829  1.00  0.00     0.005 A 
ATOM      5  C   UNL     1       1.238   0.540   0.424  1.00  0.00     0.127 A 
ATOM      6  C   UNL     1       2.413   0.639   1.139  1.00  0.00     0.093 A 
ATOM      7  O   UNL     1       0.018   0.977   0.873  1.00  0.00    -0.484 OA
ATOM      8  C   UNL     1      -0.819   0.945  -0.315  1.00  0.00     0.218 C 
ATOM      9  C   UNL     1      -0.215  -0.065  -1.305  1.00  0.00     0.106 C 
ATOM     10  C   UNL     1      -0.880  -1.423  -1.141  1.00  0.00     0.242 C 
ATOM     11  O   UNL     1      -2.290  -1.338  -1.370  1.00  0.00    -0.492 OA
ATOM     12  C   UNL     1      -2.905  -0.464  -0.510  1.00  0.00     0.129 A 
ATOM     13  C   UNL     1      -2.245   0.635   0.053  1.00  0.00     0.035 A 
ATOM     14  C   UNL     1      -2.951   1.473   0.929  1.00  0.00     0.015 A 
ATOM     15  C   UNL     1      -4.293   1.223   1.217  1.00  0.00     0.047 A 
ATOM     16  C   UNL     1      -4.935   0.141   0.626  1.00  0.00     0.119 A 
ATOM     17  C   UNL     1      -4.253  -0.705  -0.242  1.00  0.00     0.093 A 
ENDROOT
BRANCH   1  18
ATOM     18  O   UNL     1       4.705   0.287   1.337  1.00  0.00    -0.497 OA
ATOM     19  C   UNL     1       5.928  -0.203   0.805  1.00  0.00     0.278 C 
ENDBRANCH   1  18
BRANCH  16  20
ATOM     20  O   UNL     1      -6.250  -0.059   0.927  1.00  0.00    -0.508 OA
ATOM     21  H   UNL     1      -6.557  -0.851   0.455  1.00  0.00     0.293 HD
ENDBRANCH  16  20
TORSDOF 2
