REMARK SMILES CC1(C)C=Cc2c(cc(O)c3c2OC(c2ccccc2)CC3=O)O1
REMARK SMILES IDX 23 1 22 2 21 3 14 4 13 5 12 6 11 7 9 8 8 9 7 10 6 11 5 12
REMARK SMILES IDX 4 13 2 14 24 15 1 16 3 17 15 18 16 19 20 20 17 21 19 22
REMARK SMILES IDX 18 23 10 24
REMARK H PARENT 10 25
ROOT
ATOM      1  O   UNL     1      -1.438  -3.587  -1.714  1.00  0.00    -0.294 OA
ATOM      2  C   UNL     1      -1.333  -2.462  -1.229  1.00  0.00     0.174 C 
ATOM      3  C   UNL     1      -2.517  -1.585  -0.948  1.00  0.00     0.131 C 
ATOM      4  C   UNL     1      -2.167  -0.696   0.235  1.00  0.00     0.211 C 
ATOM      5  O   UNL     1      -1.023   0.116  -0.069  1.00  0.00    -0.484 OA
ATOM      6  C   UNL     1       0.093  -0.617  -0.400  1.00  0.00     0.145 A 
ATOM      7  C   UNL     1       0.004  -1.898  -0.957  1.00  0.00     0.102 A 
ATOM      8  C   UNL     1       1.165  -2.607  -1.276  1.00  0.00     0.133 A 
ATOM      9  C   UNL     1       2.413  -2.036  -1.053  1.00  0.00     0.094 A 
ATOM     10  C   UNL     1       2.507  -0.748  -0.520  1.00  0.00     0.135 A 
ATOM     11  C   UNL     1       1.353  -0.026  -0.193  1.00  0.00     0.060 A 
ATOM     12  C   UNL     1       1.494   1.313   0.368  1.00  0.00     0.015 C 
ATOM     13  C   UNL     1       2.723   1.811   0.523  1.00  0.00     0.021 C 
ATOM     14  C   UNL     1       3.978   1.058   0.152  1.00  0.00     0.122 C 
ATOM     15  O   UNL     1       3.779  -0.279  -0.348  1.00  0.00    -0.483 OA
ATOM     16  C   UNL     1       4.873   0.925   1.390  1.00  0.00     0.061 C 
ATOM     17  C   UNL     1       4.725   1.827  -0.945  1.00  0.00     0.061 C 
ENDROOT
BRANCH   4  18
ATOM     18  C   UNL     1      -3.332   0.211   0.584  1.00  0.00    -0.007 A 
ATOM     19  C   UNL     1      -3.582   1.391  -0.135  1.00  0.00     0.007 A 
ATOM     20  C   UNL     1      -4.208  -0.142   1.623  1.00  0.00     0.007 A 
ATOM     21  C   UNL     1      -4.673   2.201   0.184  1.00  0.00     0.000 A 
ATOM     22  C   UNL     1      -5.299   0.670   1.940  1.00  0.00     0.000 A 
ATOM     23  C   UNL     1      -5.530   1.841   1.221  1.00  0.00     0.000 A 
ENDBRANCH   4  18
BRANCH   8  24
ATOM     24  O   UNL     1       1.151  -3.863  -1.818  1.00  0.00    -0.507 OA
ATOM     25  H   UNL     1       0.213  -4.135  -1.944  1.00  0.00     0.293 HD
ENDBRANCH   8  24
TORSDOF 2
