REMARK SMILES CC(C)=CCc1c(O)ccc2c1O[C@H]1c3ccc(O)cc3OC[C@@H]21
REMARK SMILES IDX 6 1 7 2 9 3 10 4 11 5 12 6 13 7 14 8 24 9 23 10 22 11 21 12
REMARK SMILES IDX 15 13 16 14 17 15 18 16 20 17 5 18 4 19 2 20 1 21 3 22 8 23
REMARK SMILES IDX 19 25
REMARK H PARENT 8 24 19 26
ROOT
ATOM      1  C   UNL     1      -1.544  -1.867  -0.286  1.00  0.00     0.040 A 
ATOM      2  C   UNL     1      -2.152  -2.795  -1.145  1.00  0.00     0.122 A 
ATOM      3  C   UNL     1      -1.739  -2.946  -2.480  1.00  0.00     0.047 A 
ATOM      4  C   UNL     1      -0.710  -2.163  -3.003  1.00  0.00     0.012 A 
ATOM      5  C   UNL     1      -0.122  -1.232  -2.169  1.00  0.00     0.005 A 
ATOM      6  C   UNL     1      -0.539  -1.088  -0.849  1.00  0.00     0.131 A 
ATOM      7  O   UNL     1       0.170  -0.123  -0.170  1.00  0.00    -0.484 OA
ATOM      8  C   UNL     1       0.839   0.624  -1.219  1.00  0.00     0.218 C 
ATOM      9  C   UNL     1       1.003  -0.300  -2.433  1.00  0.00     0.106 C 
ATOM     10  C   UNL     1       2.360  -0.985  -2.392  1.00  0.00     0.242 C 
ATOM     11  O   UNL     1       3.423  -0.026  -2.399  1.00  0.00    -0.492 OA
ATOM     12  C   UNL     1       3.351   0.842  -1.340  1.00  0.00     0.129 A 
ATOM     13  C   UNL     1       2.144   1.175  -0.713  1.00  0.00     0.035 A 
ATOM     14  C   UNL     1       2.165   2.067   0.370  1.00  0.00     0.015 A 
ATOM     15  C   UNL     1       3.369   2.627   0.799  1.00  0.00     0.047 A 
ATOM     16  C   UNL     1       4.552   2.302   0.145  1.00  0.00     0.119 A 
ATOM     17  C   UNL     1       4.553   1.416  -0.927  1.00  0.00     0.093 A 
ENDROOT
BRANCH   1  18
ATOM     18  C   UNL     1      -1.940  -1.662   1.152  1.00  0.00     0.070 C 
BRANCH  18  19
ATOM     19  C   UNL     1      -3.081  -0.690   1.299  1.00  0.00    -0.023 C 
ATOM     20  C   UNL     1      -3.062   0.538   1.857  1.00  0.00    -0.080 C 
ATOM     21  C   UNL     1      -4.316   1.372   1.917  1.00  0.00     0.039 C 
ATOM     22  C   UNL     1      -1.851   1.209   2.447  1.00  0.00     0.039 C 
ENDBRANCH  18  19
ENDBRANCH   1  18
BRANCH   2  23
ATOM     23  O   UNL     1      -3.178  -3.613  -0.758  1.00  0.00    -0.508 OA
ATOM     24  H   UNL     1      -3.479  -3.362   0.128  1.00  0.00     0.293 HD
ENDBRANCH   2  23
BRANCH  16  25
ATOM     25  O   UNL     1       5.703   2.881   0.591  1.00  0.00    -0.508 OA
ATOM     26  H   UNL     1       6.441   2.556   0.049  1.00  0.00     0.293 HD
ENDBRANCH  16  25
TORSDOF 4
