REMARK SMILES O=C1C[C@@H](c2ccccc2)Oc2cc(O)cc(O)c21
REMARK SMILES IDX 14 1 13 2 12 3 11 4 4 5 3 6 2 7 1 8 19 9 17 10 16 11 15 12
REMARK SMILES IDX 18 14 5 16 6 17 10 18 7 19 9 20 8 21
REMARK H PARENT 15 13 18 15
ROOT
ATOM      1  C   UNL     1       3.513   1.178   1.516  1.00  0.00     0.123 A 
ATOM      2  C   UNL     1       2.122   1.247   1.478  1.00  0.00     0.093 A 
ATOM      3  C   UNL     1       1.419   0.379   0.642  1.00  0.00     0.138 A 
ATOM      4  O   UNL     1       0.054   0.503   0.646  1.00  0.00    -0.484 OA
ATOM      5  C   UNL     1      -0.558   0.008  -0.558  1.00  0.00     0.211 C 
ATOM      6  C   UNL     1      -0.176  -1.444  -0.805  1.00  0.00     0.131 C 
ATOM      7  C   UNL     1       1.318  -1.517  -0.933  1.00  0.00     0.174 C 
ATOM      8  O   UNL     1       1.891  -2.353  -1.628  1.00  0.00    -0.294 OA
ATOM      9  C   UNL     1       2.104  -0.569  -0.121  1.00  0.00     0.102 A 
ATOM     10  C   UNL     1       3.501  -0.626  -0.075  1.00  0.00     0.133 A 
ATOM     11  C   UNL     1       4.207   0.253   0.742  1.00  0.00     0.093 A 
ENDROOT
BRANCH   1  12
ATOM     12  O   UNL     1       4.241   2.014   2.310  1.00  0.00    -0.508 OA
ATOM     13  H   UNL     1       3.637   2.599   2.798  1.00  0.00     0.293 HD
ENDBRANCH   1  12
BRANCH  10  14
ATOM     14  O   UNL     1       4.235  -1.526  -0.799  1.00  0.00    -0.507 OA
ATOM     15  H   UNL     1       3.613  -2.090  -1.310  1.00  0.00     0.293 HD
ENDBRANCH  10  14
BRANCH   5  16
ATOM     16  C   UNL     1      -2.064   0.150  -0.437  1.00  0.00    -0.007 A 
ATOM     17  C   UNL     1      -2.732  -0.162   0.758  1.00  0.00     0.007 A 
ATOM     18  C   UNL     1      -2.821   0.565  -1.543  1.00  0.00     0.007 A 
ATOM     19  C   UNL     1      -4.121  -0.051   0.846  1.00  0.00     0.000 A 
ATOM     20  C   UNL     1      -4.210   0.675  -1.453  1.00  0.00     0.000 A 
ATOM     21  C   UNL     1      -4.859   0.368  -0.259  1.00  0.00     0.000 A 
ENDBRANCH   5  16
TORSDOF 3
