REMARK SMILES CC(C)=CCc1cc([C@@H]2CC(=O)c3cc(CC=C(C)C)c(O)c(CC=C(C)C)c3O2)ccc1O
REMARK SMILES IDX 23 1 29 2 30 3 9 4 10 5 11 6 12 7 13 8 14 9 15 10 21 11
REMARK SMILES IDX 24 12 25 13 26 14 27 15 28 16 22 17 16 19 17 20 18 21 19 22
REMARK SMILES IDX 20 23 8 24 31 25 7 26 32 27 6 28 33 29 5 30 4 31 2 32 1 33
REMARK SMILES IDX 3 34 34 35
REMARK H PARENT 22 18 34 36
ROOT
ATOM      1  C   UNL     1      -1.925   0.468  -0.239  1.00  0.00     0.041 A 
ATOM      2  C   UNL     1      -1.183  -0.290   0.683  1.00  0.00     0.138 A 
ATOM      3  O   UNL     1       0.187  -0.205   0.622  1.00  0.00    -0.484 OA
ATOM      4  C   UNL     1       0.828  -0.511   1.870  1.00  0.00     0.211 C 
ATOM      5  C   UNL     1       0.461  -1.915   2.325  1.00  0.00     0.131 C 
ATOM      6  C   UNL     1      -1.029  -1.967   2.503  1.00  0.00     0.170 C 
ATOM      7  O   UNL     1      -1.567  -2.706   3.322  1.00  0.00    -0.294 OA
ATOM      8  C   UNL     1      -1.833  -1.121   1.596  1.00  0.00     0.061 A 
ATOM      9  C   UNL     1      -3.228  -1.177   1.637  1.00  0.00     0.023 A 
ATOM     10  C   UNL     1      -4.000  -0.404   0.755  1.00  0.00    -0.001 A 
ATOM     11  C   UNL     1      -3.333   0.399  -0.189  1.00  0.00     0.126 A 
ENDROOT
BRANCH   1  12
ATOM     12  C   UNL     1      -1.220   1.366  -1.237  1.00  0.00     0.070 C 
BRANCH  12  13
ATOM     13  C   UNL     1      -0.778   2.673  -0.628  1.00  0.00    -0.023 C 
ATOM     14  C   UNL     1      -1.257   3.911  -0.861  1.00  0.00    -0.080 C 
ATOM     15  C   UNL     1      -0.666   5.105  -0.158  1.00  0.00     0.039 C 
ATOM     16  C   UNL     1      -2.390   4.243  -1.792  1.00  0.00     0.039 C 
ENDBRANCH  12  13
ENDBRANCH   1  12
BRANCH  11  17
ATOM     17  O   UNL     1      -4.023   1.145  -1.107  1.00  0.00    -0.507 OA
ATOM     18  H   UNL     1      -4.965   0.923  -1.085  1.00  0.00     0.293 HD
ENDBRANCH  11  17
BRANCH  10  19
ATOM     19  C   UNL     1      -5.506  -0.509   0.855  1.00  0.00     0.066 C 
BRANCH  19  20
ATOM     20  C   UNL     1      -6.066  -1.552  -0.073  1.00  0.00    -0.023 C 
ATOM     21  C   UNL     1      -6.622  -2.738   0.248  1.00  0.00    -0.080 C 
ATOM     22  C   UNL     1      -7.149  -3.654  -0.827  1.00  0.00     0.039 C 
ATOM     23  C   UNL     1      -6.769  -3.284   1.642  1.00  0.00     0.039 C 
ENDBRANCH  19  20
ENDBRANCH  10  19
BRANCH   4  24
ATOM     24  C   UNL     1       2.330  -0.378   1.695  1.00  0.00    -0.007 A 
ATOM     25  C   UNL     1       3.112   0.134   2.739  1.00  0.00     0.011 A 
ATOM     26  C   UNL     1       2.970  -0.794   0.514  1.00  0.00     0.015 A 
ATOM     27  C   UNL     1       4.494   0.247   2.595  1.00  0.00     0.047 A 
ATOM     28  C   UNL     1       4.364  -0.691   0.356  1.00  0.00    -0.002 A 
ATOM     29  C   UNL     1       5.109  -0.150   1.410  1.00  0.00     0.119 A 
BRANCH  28  30
ATOM     30  C   UNL     1       4.997  -1.175  -0.930  1.00  0.00     0.066 C 
BRANCH  30  31
ATOM     31  C   UNL     1       5.415  -0.040  -1.827  1.00  0.00    -0.023 C 
ATOM     32  C   UNL     1       6.625   0.194  -2.373  1.00  0.00    -0.080 C 
ATOM     33  C   UNL     1       6.846   1.404  -3.245  1.00  0.00     0.039 C 
ATOM     34  C   UNL     1       7.844  -0.672  -2.209  1.00  0.00     0.039 C 
ENDBRANCH  30  31
ENDBRANCH  28  30
BRANCH  29  35
ATOM     35  O   UNL     1       6.462   0.021   1.349  1.00  0.00    -0.508 OA
ATOM     36  H   UNL     1       6.727   0.027   0.414  1.00  0.00     0.293 HD
ENDBRANCH  29  35
ENDBRANCH   4  24
TORSDOF 9
