REMARK SMILES COc1c(CC=C(C)C)cc(C2CC(=O)c3c(O)cc(OC(C)=O)cc3O2)cc1OC(C)=O
REMARK SMILES IDX 12 1 13 2 14 3 15 4 16 5 26 6 27 7 25 8 20 9 19 10 17 11
REMARK SMILES IDX 11 12 3 13 4 14 29 15 10 16 28 17 2 18 1 19 5 20 6 21 7 22
REMARK SMILES IDX 8 23 9 24 30 25 31 26 33 27 32 28 18 29 21 31 22 32 24 33
REMARK SMILES IDX 23 34
REMARK H PARENT 18 30
ROOT
ATOM      1  C   UNL     1       1.023  -0.565   0.677  1.00  0.00     0.211 C 
ATOM      2  C   UNL     1       0.882  -0.487   2.186  1.00  0.00     0.131 C 
ATOM      3  C   UNL     1       2.172  -0.965   2.793  1.00  0.00     0.174 C 
ATOM      4  O   UNL     1       2.169  -1.602   3.840  1.00  0.00    -0.294 OA
ATOM      5  C   UNL     1       3.416  -0.577   2.074  1.00  0.00     0.102 A 
ATOM      6  C   UNL     1       3.277   0.055   0.830  1.00  0.00     0.138 A 
ATOM      7  O   UNL     1       2.071   0.307   0.228  1.00  0.00    -0.484 OA
ATOM      8  C   UNL     1       4.398   0.500   0.129  1.00  0.00     0.094 A 
ATOM      9  C   UNL     1       5.666   0.273   0.656  1.00  0.00     0.138 A 
ATOM     10  C   UNL     1       5.830  -0.352   1.891  1.00  0.00     0.094 A 
ATOM     11  C   UNL     1       4.702  -0.783   2.595  1.00  0.00     0.133 A 
ENDROOT
BRANCH   1  12
ATOM     12  C   UNL     1      -0.273  -0.164  -0.004  1.00  0.00    -0.003 A 
ATOM     13  C   UNL     1      -2.715   0.530  -1.232  1.00  0.00     0.165 A 
ATOM     14  C   UNL     1      -2.424  -0.822  -0.998  1.00  0.00     0.002 A 
ATOM     15  C   UNL     1      -1.809   1.516  -0.830  1.00  0.00     0.173 A 
ATOM     16  C   UNL     1      -1.196  -1.153  -0.391  1.00  0.00     0.015 A 
ATOM     17  C   UNL     1      -0.602   1.181  -0.213  1.00  0.00     0.058 A 
BRANCH  13  18
ATOM     18  O   UNL     1      -3.919   0.887  -1.782  1.00  0.00    -0.493 OA
ATOM     19  C   UNL     1      -3.799   1.031  -3.199  1.00  0.00     0.278 C 
ENDBRANCH  13  18
BRANCH  14  20
ATOM     20  C   UNL     1      -3.407  -1.924  -1.328  1.00  0.00     0.067 C 
BRANCH  20  21
ATOM     21  C   UNL     1      -4.263  -2.298  -0.147  1.00  0.00    -0.023 C 
ATOM     22  C   UNL     1      -5.589  -2.114   0.015  1.00  0.00    -0.080 C 
ATOM     23  C   UNL     1      -6.504  -1.451  -0.977  1.00  0.00     0.039 C 
ATOM     24  C   UNL     1      -6.275  -2.566   1.278  1.00  0.00     0.039 C 
ENDBRANCH  20  21
ENDBRANCH  14  20
BRANCH  15  25
ATOM     25  O   UNL     1      -2.151   2.867  -0.946  1.00  0.00    -0.423 OA
BRANCH  25  26
ATOM     26  C   UNL     1      -1.542   3.501  -2.020  1.00  0.00     0.308 C 
ATOM     27  O   UNL     1      -0.795   2.998  -2.848  1.00  0.00    -0.252 OA
ATOM     28  C   UNL     1      -1.961   4.941  -2.028  1.00  0.00     0.139 C 
ENDBRANCH  25  26
ENDBRANCH  15  25
ENDBRANCH   1  12
BRANCH  11  29
ATOM     29  O   UNL     1       4.881  -1.387   3.806  1.00  0.00    -0.507 OA
ATOM     30  H   UNL     1       5.820  -1.588   3.948  1.00  0.00     0.293 HD
ENDBRANCH  11  29
BRANCH   9  31
ATOM     31  O   UNL     1       6.757   0.775  -0.068  1.00  0.00    -0.426 OA
BRANCH  31  32
ATOM     32  C   UNL     1       7.759  -0.134  -0.396  1.00  0.00     0.308 C 
ATOM     33  O   UNL     1       7.789  -1.323  -0.112  1.00  0.00    -0.252 OA
ATOM     34  C   UNL     1       8.826   0.582  -1.170  1.00  0.00     0.139 C 
ENDBRANCH  31  32
ENDBRANCH   9  31
TORSDOF 9
