REMARK SMILES COc1ccc(C2CC(=O)c3c(O)cc(OCCC(C)CO)cc3O2)cc1O
REMARK SMILES IDX 17 1 18 2 19 3 20 4 21 5 22 6 16 8 15 9 23 10 14 11 24 12
REMARK SMILES IDX 12 13 25 14 11 15 7 16 9 17 8 18 10 19 13 20 6 22 5 23 26 24
REMARK SMILES IDX 4 25 27 26 3 27 28 28 2 30 1 31
REMARK H PARENT 22 7 13 21 28 29
ROOT
ATOM      1  C   UNL     1      -4.127   1.689   0.007  1.00  0.00     0.230 C 
ENDROOT
BRANCH   1   2
ATOM      2  C   UNL     1      -4.843   1.045   1.195  1.00  0.00     0.047 C 
BRANCH   2   3
ATOM      3  C   UNL     1      -6.362   0.894   0.996  1.00  0.00     0.015 C 
ATOM      4  C   UNL     1      -6.985   0.330   2.279  1.00  0.00     0.010 C 
BRANCH   3   5
ATOM      5  C   UNL     1      -6.729   0.016  -0.209  1.00  0.00     0.159 C 
BRANCH   5   6
ATOM      6  O   UNL     1      -6.022  -1.218  -0.193  1.00  0.00    -0.396 OA
ATOM      7  H   UNL     1      -6.398  -1.756   0.526  1.00  0.00     0.210 HD
ENDBRANCH   5   6
ENDBRANCH   3   5
ENDBRANCH   2   3
ENDBRANCH   1   2
BRANCH   1   8
ATOM      8  O   UNL     1      -2.720   1.763   0.251  1.00  0.00    -0.493 OA
BRANCH   8   9
ATOM      9  C   UNL     1      -1.940   0.697  -0.105  1.00  0.00     0.126 A 
ATOM     10  C   UNL     1      -0.568   0.905   0.050  1.00  0.00     0.094 A 
ATOM     11  C   UNL     1      -2.391  -0.535  -0.577  1.00  0.00     0.093 A 
ATOM     12  C   UNL     1       0.345  -0.100  -0.278  1.00  0.00     0.138 A 
ATOM     13  C   UNL     1      -1.479  -1.552  -0.885  1.00  0.00     0.133 A 
ATOM     14  O   UNL     1       1.666   0.222  -0.096  1.00  0.00    -0.484 OA
ATOM     15  C   UNL     1      -0.103  -1.344  -0.734  1.00  0.00     0.102 A 
ATOM     16  C   UNL     1       2.556  -0.588  -0.878  1.00  0.00     0.211 C 
ATOM     17  C   UNL     1       0.918  -2.394  -0.994  1.00  0.00     0.174 C 
ATOM     18  C   UNL     1       2.326  -2.060  -0.586  1.00  0.00     0.131 C 
ATOM     19  O   UNL     1       0.653  -3.491  -1.473  1.00  0.00    -0.294 OA
BRANCH  13  20
ATOM     20  O   UNL     1      -1.966  -2.752  -1.321  1.00  0.00    -0.507 OA
ATOM     21  H   UNL     1      -2.936  -2.730  -1.360  1.00  0.00     0.293 HD
ENDBRANCH  13  20
BRANCH  16  22
ATOM     22  C   UNL     1       3.987  -0.197  -0.556  1.00  0.00    -0.003 A 
ATOM     23  C   UNL     1       4.959  -0.202  -1.568  1.00  0.00     0.011 A 
ATOM     24  C   UNL     1       4.381   0.138   0.749  1.00  0.00     0.057 A 
ATOM     25  C   UNL     1       6.290   0.131  -1.289  1.00  0.00     0.051 A 
ATOM     26  C   UNL     1       5.710   0.471   1.019  1.00  0.00     0.158 A 
ATOM     27  C   UNL     1       6.679   0.471   0.008  1.00  0.00     0.160 A 
BRANCH  26  28
ATOM     28  O   UNL     1       6.078   0.802   2.297  1.00  0.00    -0.504 OA
ATOM     29  H   UNL     1       5.291   0.799   2.863  1.00  0.00     0.293 HD
ENDBRANCH  26  28
BRANCH  27  30
ATOM     30  O   UNL     1       7.951   0.811   0.385  1.00  0.00    -0.493 OA
ATOM     31  C   UNL     1       8.953   0.817  -0.621  1.00  0.00     0.278 C 
ENDBRANCH  27  30
ENDBRANCH  16  22
ENDBRANCH   8   9
ENDBRANCH   1   8
TORSDOF 10
