MODEL 1
REMARK VINA RESULT:    -8.549      0.000      0.000
REMARK INTER + INTRA:         -11.675
REMARK INTER:                 -10.857
REMARK INTRA:                  -0.818
REMARK UNBOUND:                -0.876
REMARK SMILES C=C(C)/C=C/c1c(OC)cc(O)c2c1O[C@H](c1ccccc1)CC2=O
REMARK SMILES IDX 7 1 10 2 11 3 13 4 14 5 6 6 15 7 16 8 23 9 24 10 25 11 8 12
REMARK SMILES IDX 9 13 5 14 4 15 2 16 1 17 3 18 12 19 17 21 18 22 22 23 19 24
REMARK SMILES IDX 21 25 20 26
REMARK H PARENT 12 20
ROOT
ATOM      1  C   UNL     1      88.186  50.737  42.366  1.00  0.00     0.133 A 
ATOM      2  C   UNL     1      88.090  51.384  41.127  1.00  0.00     0.094 A 
ATOM      3  C   UNL     1      87.222  52.462  40.962  1.00  0.00     0.133 A 
ATOM      4  C   UNL     1      86.442  52.912  42.028  1.00  0.00     0.102 A 
ATOM      5  C   UNL     1      86.540  52.288  43.272  1.00  0.00     0.145 A 
ATOM      6  C   UNL     1      87.411  51.195  43.457  1.00  0.00     0.060 A 
ATOM      7  O   UNL     1      85.776  52.691  44.343  1.00  0.00    -0.484 OA
ATOM      8  C   UNL     1      85.461  54.093  44.319  1.00  0.00     0.211 C 
ATOM      9  C   UNL     1      84.657  54.400  43.063  1.00  0.00     0.131 C 
ATOM     10  C   UNL     1      85.486  54.024  41.868  1.00  0.00     0.174 C 
ATOM     11  O   UNL     1      85.362  54.571  40.774  1.00  0.00    -0.294 OA
ENDROOT
BRANCH   1  12
ATOM     12  O   UNL     1      88.995  49.653  42.601  1.00  0.00    -0.496 OA
ATOM     13  C   UNL     1      90.259  49.614  41.953  1.00  0.00     0.278 C 
ENDBRANCH   1  12
BRANCH   6  14
ATOM     14  C   UNL     1      87.469  50.562  44.791  1.00  0.00     0.016 C 
ATOM     15  C   UNL     1      87.776  51.240  45.909  1.00  0.00     0.004 C 
BRANCH  15  16
ATOM     16  C   UNL     1      87.806  50.693  47.258  1.00  0.00    -0.058 C 
ATOM     17  C   UNL     1      88.870  49.981  47.667  1.00  0.00     0.012 C 
ATOM     18  C   UNL     1      86.643  50.934  48.182  1.00  0.00     0.043 C 
ENDBRANCH  15  16
ENDBRANCH   6  14
BRANCH   3  19
ATOM     19  O   UNL     1      87.179  53.026  39.715  1.00  0.00    -0.507 OA
ATOM     20  H   UNL     1      86.998  53.989  39.818  1.00  0.00     0.293 HD
ENDBRANCH   3  19
BRANCH   8  21
ATOM     21  C   UNL     1      84.782  54.418  45.640  1.00  0.00    -0.007 A 
ATOM     22  C   UNL     1      84.444  53.353  46.498  1.00  0.00     0.007 A 
ATOM     23  C   UNL     1      84.486  55.723  46.062  1.00  0.00     0.007 A 
ATOM     24  C   UNL     1      83.830  53.584  47.730  1.00  0.00     0.000 A 
ATOM     25  C   UNL     1      83.872  55.953  47.297  1.00  0.00     0.000 A 
ATOM     26  C   UNL     1      83.545  54.886  48.130  1.00  0.00     0.000 A 
ENDBRANCH   8  21
TORSDOF 5
ENDMDL
MODEL 2
REMARK VINA RESULT:    -8.473      4.809      6.054
REMARK INTER + INTRA:         -11.579
REMARK INTER:                 -10.732
REMARK INTRA:                  -0.847
REMARK UNBOUND:                -0.876
REMARK SMILES C=C(C)/C=C/c1c(OC)cc(O)c2c1O[C@H](c1ccccc1)CC2=O
REMARK SMILES IDX 7 1 10 2 11 3 13 4 14 5 6 6 15 7 16 8 23 9 24 10 25 11 8 12
REMARK SMILES IDX 9 13 5 14 4 15 2 16 1 17 3 18 12 19 17 21 18 22 22 23 19 24
REMARK SMILES IDX 21 25 20 26
REMARK H PARENT 12 20
ROOT
ATOM      1  C   UNL     1      84.367  46.507  43.866  1.00  0.00     0.133 A 
ATOM      2  C   UNL     1      83.133  45.843  43.904  1.00  0.00     0.094 A 
ATOM      3  C   UNL     1      81.947  46.547  43.702  1.00  0.00     0.133 A 
ATOM      4  C   UNL     1      81.975  47.920  43.454  1.00  0.00     0.102 A 
ATOM      5  C   UNL     1      83.196  48.592  43.396  1.00  0.00     0.145 A 
ATOM      6  C   UNL     1      84.405  47.896  43.600  1.00  0.00     0.060 A 
ATOM      7  O   UNL     1      83.264  49.947  43.171  1.00  0.00    -0.484 OA
ATOM      8  C   UNL     1      82.188  50.441  42.356  1.00  0.00     0.211 C 
ATOM      9  C   UNL     1      80.866  50.177  43.066  1.00  0.00     0.131 C 
ATOM     10  C   UNL     1      80.732  48.695  43.277  1.00  0.00     0.174 C 
ATOM     11  O   UNL     1      79.643  48.130  43.352  1.00  0.00    -0.294 OA
ENDROOT
BRANCH   1  12
ATOM     12  O   UNL     1      85.574  45.891  44.083  1.00  0.00    -0.496 OA
ATOM     13  C   UNL     1      85.643  44.482  43.901  1.00  0.00     0.278 C 
ENDBRANCH   1  12
BRANCH   6  14
ATOM     14  C   UNL     1      85.671  48.656  43.540  1.00  0.00     0.016 C 
ATOM     15  C   UNL     1      86.214  49.256  44.612  1.00  0.00     0.004 C 
BRANCH  15  16
ATOM     16  C   UNL     1      87.478  49.980  44.636  1.00  0.00    -0.058 C 
ATOM     17  C   UNL     1      87.732  50.848  45.629  1.00  0.00     0.012 C 
ATOM     18  C   UNL     1      88.488  49.744  43.546  1.00  0.00     0.043 C 
ENDBRANCH  15  16
ENDBRANCH   6  14
BRANCH   3  19
ATOM     19  O   UNL     1      80.788  45.823  43.772  1.00  0.00    -0.507 OA
ATOM     20  H   UNL     1      80.236  46.048  42.987  1.00  0.00     0.293 HD
ENDBRANCH   3  19
BRANCH   8  21
ATOM     21  C   UNL     1      82.497  51.897  42.047  1.00  0.00    -0.007 A 
ATOM     22  C   UNL     1      83.805  52.366  42.275  1.00  0.00     0.007 A 
ATOM     23  C   UNL     1      81.555  52.799  41.531  1.00  0.00     0.007 A 
ATOM     24  C   UNL     1      84.158  53.688  42.001  1.00  0.00     0.000 A 
ATOM     25  C   UNL     1      81.909  54.124  41.255  1.00  0.00     0.000 A 
ATOM     26  C   UNL     1      83.209  54.567  41.489  1.00  0.00     0.000 A 
ENDBRANCH   8  21
TORSDOF 5
ENDMDL
MODEL 3
REMARK VINA RESULT:    -8.362      2.011      7.228
REMARK INTER + INTRA:         -11.438
REMARK INTER:                 -10.514
REMARK INTRA:                  -0.924
REMARK UNBOUND:                -0.876
REMARK SMILES C=C(C)/C=C/c1c(OC)cc(O)c2c1O[C@H](c1ccccc1)CC2=O
REMARK SMILES IDX 7 1 10 2 11 3 13 4 14 5 6 6 15 7 16 8 23 9 24 10 25 11 8 12
REMARK SMILES IDX 9 13 5 14 4 15 2 16 1 17 3 18 12 19 17 21 18 22 22 23 19 24
REMARK SMILES IDX 21 25 20 26
REMARK H PARENT 12 20
ROOT
ATOM      1  C   UNL     1      84.509  53.593  47.233  1.00  0.00     0.133 A 
ATOM      2  C   UNL     1      85.002  52.983  48.395  1.00  0.00     0.094 A 
ATOM      3  C   UNL     1      85.987  52.001  48.311  1.00  0.00     0.133 A 
ATOM      4  C   UNL     1      86.497  51.616  47.070  1.00  0.00     0.102 A 
ATOM      5  C   UNL     1      86.029  52.226  45.906  1.00  0.00     0.145 A 
ATOM      6  C   UNL     1      85.031  53.221  45.972  1.00  0.00     0.060 A 
ATOM      7  O   UNL     1      86.494  51.863  44.664  1.00  0.00    -0.484 OA
ATOM      8  C   UNL     1      87.858  51.409  44.680  1.00  0.00     0.211 C 
ATOM      9  C   UNL     1      87.959  50.175  45.567  1.00  0.00     0.131 C 
ATOM     10  C   UNL     1      87.511  50.551  46.951  1.00  0.00     0.174 C 
ATOM     11  O   UNL     1      87.918  49.979  47.960  1.00  0.00    -0.294 OA
ENDROOT
BRANCH   1  12
ATOM     12  O   UNL     1      83.522  54.546  47.230  1.00  0.00    -0.496 OA
ATOM     13  C   UNL     1      83.904  55.900  47.437  1.00  0.00     0.278 C 
ENDBRANCH   1  12
BRANCH   6  14
ATOM     14  C   UNL     1      84.561  53.827  44.710  1.00  0.00     0.016 C 
ATOM     15  C   UNL     1      85.235  54.798  44.071  1.00  0.00     0.004 C 
BRANCH  15  16
ATOM     16  C   UNL     1      84.855  55.407  42.803  1.00  0.00    -0.058 C 
ATOM     17  C   UNL     1      84.466  56.692  42.769  1.00  0.00     0.012 C 
ATOM     18  C   UNL     1      84.906  54.588  41.542  1.00  0.00     0.043 C 
ENDBRANCH  15  16
ENDBRANCH   6  14
BRANCH   3  19
ATOM     19  O   UNL     1      86.400  51.447  49.493  1.00  0.00    -0.507 OA
ATOM     20  H   UNL     1      87.378  51.336  49.456  1.00  0.00     0.293 HD
ENDBRANCH   3  19
BRANCH   8  21
ATOM     21  C   UNL     1      88.281  51.222  43.232  1.00  0.00    -0.007 A 
ATOM     22  C   UNL     1      88.049  52.276  42.327  1.00  0.00     0.007 A 
ATOM     23  C   UNL     1      88.907  50.064  42.748  1.00  0.00     0.007 A 
ATOM     24  C   UNL     1      88.424  52.174  40.986  1.00  0.00     0.000 A 
ATOM     25  C   UNL     1      89.285  49.963  41.405  1.00  0.00     0.000 A 
ATOM     26  C   UNL     1      89.044  51.017  40.526  1.00  0.00     0.000 A 
ENDBRANCH   8  21
TORSDOF 5
ENDMDL
MODEL 4
REMARK VINA RESULT:    -8.349      3.595      4.482
REMARK INTER + INTRA:         -11.422
REMARK INTER:                 -10.514
REMARK INTRA:                  -0.908
REMARK UNBOUND:                -0.876
REMARK SMILES C=C(C)/C=C/c1c(OC)cc(O)c2c1O[C@H](c1ccccc1)CC2=O
REMARK SMILES IDX 7 1 10 2 11 3 13 4 14 5 6 6 15 7 16 8 23 9 24 10 25 11 8 12
REMARK SMILES IDX 9 13 5 14 4 15 2 16 1 17 3 18 12 19 17 21 18 22 22 23 19 24
REMARK SMILES IDX 21 25 20 26
REMARK H PARENT 12 20
ROOT
ATOM      1  C   UNL     1      89.209  50.520  41.445  1.00  0.00     0.133 A 
ATOM      2  C   UNL     1      89.513  51.883  41.563  1.00  0.00     0.094 A 
ATOM      3  C   UNL     1      88.504  52.811  41.817  1.00  0.00     0.133 A 
ATOM      4  C   UNL     1      87.181  52.394  41.960  1.00  0.00     0.102 A 
ATOM      5  C   UNL     1      86.864  51.038  41.861  1.00  0.00     0.145 A 
ATOM      6  C   UNL     1      87.871  50.086  41.604  1.00  0.00     0.060 A 
ATOM      7  O   UNL     1      85.569  50.589  41.980  1.00  0.00    -0.484 OA
ATOM      8  C   UNL     1      84.764  51.405  42.847  1.00  0.00     0.211 C 
ATOM      9  C   UNL     1      84.692  52.815  42.277  1.00  0.00     0.131 C 
ATOM     10  C   UNL     1      86.089  53.360  42.188  1.00  0.00     0.174 C 
ATOM     11  O   UNL     1      86.339  54.562  42.250  1.00  0.00    -0.294 OA
ENDROOT
BRANCH   1  12
ATOM     12  O   UNL     1      90.139  49.550  41.169  1.00  0.00    -0.496 OA
ATOM     13  C   UNL     1      91.059  49.201  42.195  1.00  0.00     0.278 C 
ENDBRANCH   1  12
BRANCH   6  14
ATOM     14  C   UNL     1      87.482  48.665  41.497  1.00  0.00     0.016 C 
ATOM     15  C   UNL     1      87.448  47.836  42.553  1.00  0.00     0.004 C 
BRANCH  15  16
ATOM     16  C   UNL     1      87.031  46.440  42.530  1.00  0.00    -0.058 C 
ATOM     17  C   UNL     1      87.934  45.477  42.280  1.00  0.00     0.012 C 
ATOM     18  C   UNL     1      85.590  46.092  42.789  1.00  0.00     0.043 C 
ENDBRANCH  15  16
ENDBRANCH   6  14
BRANCH   3  19
ATOM     19  O   UNL     1      88.888  54.122  41.902  1.00  0.00    -0.507 OA
ATOM     20  H   UNL     1      89.656  54.180  42.516  1.00  0.00     0.293 HD
ENDBRANCH   3  19
BRANCH   8  21
ATOM     21  C   UNL     1      83.434  50.689  43.021  1.00  0.00    -0.007 A 
ATOM     22  C   UNL     1      82.297  51.227  42.385  1.00  0.00     0.007 A 
ATOM     23  C   UNL     1      83.275  49.511  43.765  1.00  0.00     0.007 A 
ATOM     24  C   UNL     1      81.049  50.612  42.494  1.00  0.00     0.000 A 
ATOM     25  C   UNL     1      82.024  48.895  43.872  1.00  0.00     0.000 A 
ATOM     26  C   UNL     1      80.913  49.445  43.237  1.00  0.00     0.000 A 
ENDBRANCH   8  21
TORSDOF 5
ENDMDL
MODEL 5
REMARK VINA RESULT:    -8.270      4.177      7.311
REMARK INTER + INTRA:         -11.321
REMARK INTER:                 -10.609
REMARK INTRA:                  -0.712
REMARK UNBOUND:                -0.876
REMARK SMILES C=C(C)/C=C/c1c(OC)cc(O)c2c1O[C@H](c1ccccc1)CC2=O
REMARK SMILES IDX 7 1 10 2 11 3 13 4 14 5 6 6 15 7 16 8 23 9 24 10 25 11 8 12
REMARK SMILES IDX 9 13 5 14 4 15 2 16 1 17 3 18 12 19 17 21 18 22 22 23 19 24
REMARK SMILES IDX 21 25 20 26
REMARK H PARENT 12 20
ROOT
ATOM      1  C   UNL     1      84.104  46.176  44.008  1.00  0.00     0.133 A 
ATOM      2  C   UNL     1      84.782  44.950  43.971  1.00  0.00     0.094 A 
ATOM      3  C   UNL     1      86.067  44.871  43.437  1.00  0.00     0.133 A 
ATOM      4  C   UNL     1      86.695  46.012  42.936  1.00  0.00     0.102 A 
ATOM      5  C   UNL     1      86.039  47.243  42.980  1.00  0.00     0.145 A 
ATOM      6  C   UNL     1      84.739  47.341  43.516  1.00  0.00     0.060 A 
ATOM      7  O   UNL     1      86.618  48.387  42.481  1.00  0.00    -0.484 OA
ATOM      8  C   UNL     1      88.052  48.387  42.581  1.00  0.00     0.211 C 
ATOM      9  C   UNL     1      88.606  47.222  41.771  1.00  0.00     0.131 C 
ATOM     10  C   UNL     1      88.038  45.948  42.328  1.00  0.00     0.174 C 
ATOM     11  O   UNL     1      88.623  44.870  42.251  1.00  0.00    -0.294 OA
ENDROOT
BRANCH   1  12
ATOM     12  O   UNL     1      82.829  46.331  44.491  1.00  0.00    -0.496 OA
ATOM     13  C   UNL     1      81.748  46.122  43.593  1.00  0.00     0.278 C 
ENDBRANCH   1  12
BRANCH   6  14
ATOM     14  C   UNL     1      84.084  48.665  43.529  1.00  0.00     0.016 C 
ATOM     15  C   UNL     1      84.603  49.730  44.163  1.00  0.00     0.004 C 
BRANCH  15  16
ATOM     16  C   UNL     1      84.037  51.073  44.179  1.00  0.00    -0.058 C 
ATOM     17  C   UNL     1      84.452  51.961  45.097  1.00  0.00     0.012 C 
ATOM     18  C   UNL     1      82.994  51.450  43.162  1.00  0.00     0.043 C 
ENDBRANCH  15  16
ENDBRANCH   6  14
BRANCH   3  19
ATOM     19  O   UNL     1      86.649  43.632  43.426  1.00  0.00    -0.507 OA
ATOM     20  H   UNL     1      86.111  43.043  42.848  1.00  0.00     0.293 HD
ENDBRANCH   3  19
BRANCH   8  21
ATOM     21  C   UNL     1      88.526  49.770  42.166  1.00  0.00    -0.007 A 
ATOM     22  C   UNL     1      87.802  50.890  42.622  1.00  0.00     0.007 A 
ATOM     23  C   UNL     1      89.657  49.998  41.368  1.00  0.00     0.007 A 
ATOM     24  C   UNL     1      88.192  52.188  42.287  1.00  0.00     0.000 A 
ATOM     25  C   UNL     1      90.047  51.299  41.034  1.00  0.00     0.000 A 
ATOM     26  C   UNL     1      89.316  52.392  41.494  1.00  0.00     0.000 A 
ENDBRANCH   8  21
TORSDOF 5
ENDMDL
MODEL 6
REMARK VINA RESULT:    -8.231      4.907      6.538
REMARK INTER + INTRA:         -11.272
REMARK INTER:                 -10.412
REMARK INTRA:                  -0.860
REMARK UNBOUND:                -0.876
REMARK SMILES C=C(C)/C=C/c1c(OC)cc(O)c2c1O[C@H](c1ccccc1)CC2=O
REMARK SMILES IDX 7 1 10 2 11 3 13 4 14 5 6 6 15 7 16 8 23 9 24 10 25 11 8 12
REMARK SMILES IDX 9 13 5 14 4 15 2 16 1 17 3 18 12 19 17 21 18 22 22 23 19 24
REMARK SMILES IDX 21 25 20 26
REMARK H PARENT 12 20
ROOT
ATOM      1  C   UNL     1      87.995  48.446  42.693  1.00  0.00     0.133 A 
ATOM      2  C   UNL     1      88.435  47.183  42.273  1.00  0.00     0.094 A 
ATOM      3  C   UNL     1      87.565  46.095  42.281  1.00  0.00     0.133 A 
ATOM      4  C   UNL     1      86.244  46.250  42.703  1.00  0.00     0.102 A 
ATOM      5  C   UNL     1      85.786  47.505  43.107  1.00  0.00     0.145 A 
ATOM      6  C   UNL     1      86.653  48.616  43.107  1.00  0.00     0.060 A 
ATOM      7  O   UNL     1      84.496  47.696  43.546  1.00  0.00    -0.484 OA
ATOM      8  C   UNL     1      83.551  46.803  42.931  1.00  0.00     0.211 C 
ATOM      9  C   UNL     1      83.927  45.368  43.276  1.00  0.00     0.131 C 
ATOM     10  C   UNL     1      85.314  45.107  42.760  1.00  0.00     0.174 C 
ATOM     11  O   UNL     1      85.702  43.986  42.436  1.00  0.00    -0.294 OA
ENDROOT
BRANCH   1  12
ATOM     12  O   UNL     1      88.798  49.558  42.740  1.00  0.00    -0.496 OA
ATOM     13  C   UNL     1      89.430  49.973  41.536  1.00  0.00     0.278 C 
ENDBRANCH   1  12
BRANCH   6  14
ATOM     14  C   UNL     1      86.123  49.920  43.555  1.00  0.00     0.016 C 
ATOM     15  C   UNL     1      86.182  50.332  44.833  1.00  0.00     0.004 C 
BRANCH  15  16
ATOM     16  C   UNL     1      85.723  51.620  45.336  1.00  0.00    -0.058 C 
ATOM     17  C   UNL     1      84.481  52.044  45.052  1.00  0.00     0.012 C 
ATOM     18  C   UNL     1      86.648  52.461  46.173  1.00  0.00     0.043 C 
ENDBRANCH  15  16
ENDBRANCH   6  14
BRANCH   3  19
ATOM     19  O   UNL     1      88.081  44.896  41.871  1.00  0.00    -0.507 OA
ATOM     20  H   UNL     1      88.643  44.537  42.596  1.00  0.00     0.293 HD
ENDBRANCH   3  19
BRANCH   8  21
ATOM     21  C   UNL     1      82.167  47.251  43.371  1.00  0.00    -0.007 A 
ATOM     22  C   UNL     1      81.907  48.633  43.455  1.00  0.00     0.007 A 
ATOM     23  C   UNL     1      81.124  46.366  43.681  1.00  0.00     0.007 A 
ATOM     24  C   UNL     1      80.653  49.111  43.840  1.00  0.00     0.000 A 
ATOM     25  C   UNL     1      79.868  46.845  44.065  1.00  0.00     0.000 A 
ATOM     26  C   UNL     1      79.633  48.216  44.144  1.00  0.00     0.000 A 
ENDBRANCH   8  21
TORSDOF 5
ENDMDL
MODEL 7
REMARK VINA RESULT:    -8.134      3.787      5.255
REMARK INTER + INTRA:         -11.150
REMARK INTER:                 -10.380
REMARK INTRA:                  -0.771
REMARK UNBOUND:                -0.876
REMARK SMILES C=C(C)/C=C/c1c(OC)cc(O)c2c1O[C@H](c1ccccc1)CC2=O
REMARK SMILES IDX 7 1 10 2 11 3 13 4 14 5 6 6 15 7 16 8 23 9 24 10 25 11 8 12
REMARK SMILES IDX 9 13 5 14 4 15 2 16 1 17 3 18 12 19 17 21 18 22 22 23 19 24
REMARK SMILES IDX 21 25 20 26
REMARK H PARENT 12 20
ROOT
ATOM      1  C   UNL     1      86.756  46.088  42.499  1.00  0.00     0.133 A 
ATOM      2  C   UNL     1      88.037  46.207  41.945  1.00  0.00     0.094 A 
ATOM      3  C   UNL     1      88.738  47.408  42.042  1.00  0.00     0.133 A 
ATOM      4  C   UNL     1      88.175  48.504  42.697  1.00  0.00     0.102 A 
ATOM      5  C   UNL     1      86.907  48.395  43.270  1.00  0.00     0.145 A 
ATOM      6  C   UNL     1      86.183  47.189  43.179  1.00  0.00     0.060 A 
ATOM      7  O   UNL     1      86.310  49.457  43.909  1.00  0.00    -0.484 OA
ATOM      8  C   UNL     1      87.253  50.346  44.531  1.00  0.00     0.211 C 
ATOM      9  C   UNL     1      88.165  50.931  43.461  1.00  0.00     0.131 C 
ATOM     10  C   UNL     1      88.879  49.798  42.779  1.00  0.00     0.174 C 
ATOM     11  O   UNL     1      89.984  49.927  42.257  1.00  0.00    -0.294 OA
ENDROOT
BRANCH   1  12
ATOM     12  O   UNL     1      85.992  44.950  42.421  1.00  0.00    -0.496 OA
ATOM     13  C   UNL     1      86.666  43.700  42.369  1.00  0.00     0.278 C 
ENDBRANCH   1  12
BRANCH   6  14
ATOM     14  C   UNL     1      84.840  47.129  43.791  1.00  0.00     0.016 C 
ATOM     15  C   UNL     1      83.724  47.499  43.142  1.00  0.00     0.004 C 
BRANCH  15  16
ATOM     16  C   UNL     1      82.366  47.424  43.666  1.00  0.00    -0.058 C 
ATOM     17  C   UNL     1      81.870  46.242  44.066  1.00  0.00     0.012 C 
ATOM     18  C   UNL     1      81.536  48.675  43.755  1.00  0.00     0.043 C 
ENDBRANCH  15  16
ENDBRANCH   6  14
BRANCH   3  19
ATOM     19  O   UNL     1      89.976  47.442  41.459  1.00  0.00    -0.507 OA
ATOM     20  H   UNL     1      90.303  46.517  41.375  1.00  0.00     0.293 HD
ENDBRANCH   3  19
BRANCH   8  21
ATOM     21  C   UNL     1      86.448  51.351  45.340  1.00  0.00    -0.007 A 
ATOM     22  C   UNL     1      85.272  51.878  44.771  1.00  0.00     0.007 A 
ATOM     23  C   UNL     1      86.802  51.772  46.630  1.00  0.00     0.007 A 
ATOM     24  C   UNL     1      84.482  52.795  45.466  1.00  0.00     0.000 A 
ATOM     25  C   UNL     1      86.008  52.689  47.326  1.00  0.00     0.000 A 
ATOM     26  C   UNL     1      84.850  53.200  46.745  1.00  0.00     0.000 A 
ENDBRANCH   8  21
TORSDOF 5
ENDMDL
MODEL 8
REMARK VINA RESULT:    -8.004      4.743      5.605
REMARK INTER + INTRA:         -10.986
REMARK INTER:                 -10.066
REMARK INTRA:                  -0.920
REMARK UNBOUND:                -0.876
REMARK SMILES C=C(C)/C=C/c1c(OC)cc(O)c2c1O[C@H](c1ccccc1)CC2=O
REMARK SMILES IDX 7 1 10 2 11 3 13 4 14 5 6 6 15 7 16 8 23 9 24 10 25 11 8 12
REMARK SMILES IDX 9 13 5 14 4 15 2 16 1 17 3 18 12 19 17 21 18 22 22 23 19 24
REMARK SMILES IDX 21 25 20 26
REMARK H PARENT 12 20
ROOT
ATOM      1  C   UNL     1      87.325  50.019  43.456  1.00  0.00     0.133 A 
ATOM      2  C   UNL     1      87.198  51.390  43.196  1.00  0.00     0.094 A 
ATOM      3  C   UNL     1      85.943  51.949  42.960  1.00  0.00     0.133 A 
ATOM      4  C   UNL     1      84.799  51.151  42.983  1.00  0.00     0.102 A 
ATOM      5  C   UNL     1      84.907  49.787  43.257  1.00  0.00     0.145 A 
ATOM      6  C   UNL     1      86.169  49.205  43.497  1.00  0.00     0.060 A 
ATOM      7  O   UNL     1      83.805  48.964  43.273  1.00  0.00    -0.484 OA
ATOM      8  C   UNL     1      82.602  49.636  43.681  1.00  0.00     0.211 C 
ATOM      9  C   UNL     1      82.301  50.758  42.696  1.00  0.00     0.131 C 
ATOM     10  C   UNL     1      83.464  51.710  42.696  1.00  0.00     0.174 C 
ATOM     11  O   UNL     1      83.346  52.903  42.424  1.00  0.00    -0.294 OA
ENDROOT
BRANCH   1  12
ATOM     12  O   UNL     1      88.526  49.390  43.670  1.00  0.00    -0.496 OA
ATOM     13  C   UNL     1      89.491  49.426  42.627  1.00  0.00     0.278 C 
ENDBRANCH   1  12
BRANCH   6  14
ATOM     14  C   UNL     1      86.231  47.754  43.771  1.00  0.00     0.016 C 
ATOM     15  C   UNL     1      86.378  46.834  42.803  1.00  0.00     0.004 C 
BRANCH  15  16
ATOM     16  C   UNL     1      86.493  45.396  43.003  1.00  0.00    -0.058 C 
ATOM     17  C   UNL     1      87.441  44.704  42.349  1.00  0.00     0.012 C 
ATOM     18  C   UNL     1      85.548  44.700  43.945  1.00  0.00     0.043 C 
ENDBRANCH  15  16
ENDBRANCH   6  14
BRANCH   3  19
ATOM     19  O   UNL     1      85.911  53.292  42.699  1.00  0.00    -0.507 OA
ATOM     20  H   UNL     1      85.787  53.769  43.552  1.00  0.00     0.293 HD
ENDBRANCH   3  19
BRANCH   8  21
ATOM     21  C   UNL     1      81.526  48.571  43.825  1.00  0.00    -0.007 A 
ATOM     22  C   UNL     1      81.905  47.219  43.715  1.00  0.00     0.007 A 
ATOM     23  C   UNL     1      80.177  48.859  44.078  1.00  0.00     0.007 A 
ATOM     24  C   UNL     1      80.968  46.193  43.849  1.00  0.00     0.000 A 
ATOM     25  C   UNL     1      79.239  47.830  44.214  1.00  0.00     0.000 A 
ATOM     26  C   UNL     1      79.634  46.499  44.100  1.00  0.00     0.000 A 
ENDBRANCH   8  21
TORSDOF 5
ENDMDL
MODEL 9
REMARK VINA RESULT:    -7.981      3.528      6.601
REMARK INTER + INTRA:         -10.957
REMARK INTER:                 -10.080
REMARK INTRA:                  -0.876
REMARK UNBOUND:                -0.876
REMARK SMILES C=C(C)/C=C/c1c(OC)cc(O)c2c1O[C@H](c1ccccc1)CC2=O
REMARK SMILES IDX 7 1 10 2 11 3 13 4 14 5 6 6 15 7 16 8 23 9 24 10 25 11 8 12
REMARK SMILES IDX 9 13 5 14 4 15 2 16 1 17 3 18 12 19 17 21 18 22 22 23 19 24
REMARK SMILES IDX 21 25 20 26
REMARK H PARENT 12 20
ROOT
ATOM      1  C   UNL     1      83.588  51.062  42.880  1.00  0.00     0.133 A 
ATOM      2  C   UNL     1      83.796  52.293  42.244  1.00  0.00     0.094 A 
ATOM      3  C   UNL     1      85.082  52.692  41.883  1.00  0.00     0.133 A 
ATOM      4  C   UNL     1      86.176  51.867  42.146  1.00  0.00     0.102 A 
ATOM      5  C   UNL     1      85.984  50.631  42.763  1.00  0.00     0.145 A 
ATOM      6  C   UNL     1      84.690  50.213  43.136  1.00  0.00     0.060 A 
ATOM      7  O   UNL     1      87.039  49.797  43.054  1.00  0.00    -0.484 OA
ATOM      8  C   UNL     1      88.131  49.922  42.129  1.00  0.00     0.211 C 
ATOM      9  C   UNL     1      88.666  51.346  42.181  1.00  0.00     0.131 C 
ATOM     10  C   UNL     1      87.552  52.283  41.811  1.00  0.00     0.174 C 
ATOM     11  O   UNL     1      87.750  53.381  41.293  1.00  0.00    -0.294 OA
ENDROOT
BRANCH   1  12
ATOM     12  O   UNL     1      82.358  50.612  43.291  1.00  0.00    -0.496 OA
ATOM     13  C   UNL     1      81.277  50.703  42.372  1.00  0.00     0.278 C 
ENDBRANCH   1  12
BRANCH   6  14
ATOM     14  C   UNL     1      84.540  48.900  43.797  1.00  0.00     0.016 C 
ATOM     15  C   UNL     1      84.379  47.753  43.116  1.00  0.00     0.004 C 
BRANCH  15  16
ATOM     16  C   UNL     1      84.272  46.422  43.698  1.00  0.00    -0.058 C 
ATOM     17  C   UNL     1      83.071  45.830  43.795  1.00  0.00     0.012 C 
ATOM     18  C   UNL     1      85.514  45.724  44.184  1.00  0.00     0.043 C 
ENDBRANCH  15  16
ENDBRANCH   6  14
BRANCH   3  19
ATOM     19  O   UNL     1      85.196  53.916  41.281  1.00  0.00    -0.507 OA
ATOM     20  H   UNL     1      86.074  54.296  41.518  1.00  0.00     0.293 HD
ENDBRANCH   3  19
BRANCH   8  21
ATOM     21  C   UNL     1      89.127  48.824  42.468  1.00  0.00    -0.007 A 
ATOM     22  C   UNL     1      88.848  47.512  42.038  1.00  0.00     0.007 A 
ATOM     23  C   UNL     1      90.320  49.047  43.170  1.00  0.00     0.007 A 
ATOM     24  C   UNL     1      89.727  46.461  42.306  1.00  0.00     0.000 A 
ATOM     25  C   UNL     1      91.201  47.994  43.437  1.00  0.00     0.000 A 
ATOM     26  C   UNL     1      90.905  46.703  43.005  1.00  0.00     0.000 A 
ENDBRANCH   8  21
TORSDOF 5
ENDMDL
