MODEL 1
REMARK VINA RESULT:    -9.547      0.000      0.000
REMARK INTER + INTRA:         -14.412
REMARK INTER:                 -13.108
REMARK INTRA:                  -1.304
REMARK UNBOUND:                -1.237
REMARK SMILES CC(C)=CCc1cc([C@@H]2CC(=O)c3c(O)cc(O)cc3O2)cc(CC=C(C)C)c1O
REMARK SMILES IDX 23 1 22 2 8 3 7 4 6 5 29 6 24 7 25 8 26 9 27 10 28 11 30 12
REMARK SMILES IDX 9 14 10 15 21 16 11 17 20 18 12 19 13 20 19 21 14 22 17 23
REMARK SMILES IDX 16 24 15 25 18 27 5 29 4 30 2 31 1 32 3 33
REMARK H PARENT 30 13 15 26 18 28
ROOT
ATOM      1  C   UNL     1      86.144  49.216  43.488  1.00  0.00    -0.002 A 
ATOM      2  C   UNL     1      85.834  50.404  44.176  1.00  0.00     0.015 A 
ATOM      3  C   UNL     1      86.697  51.509  44.161  1.00  0.00    -0.006 A 
ATOM      4  C   UNL     1      87.893  51.414  43.437  1.00  0.00     0.015 A 
ATOM      5  C   UNL     1      88.244  50.234  42.760  1.00  0.00    -0.002 A 
ATOM      6  C   UNL     1      87.364  49.142  42.797  1.00  0.00     0.122 A 
ENDROOT
BRANCH   1   7
ATOM      7  C   UNL     1      85.144  48.081  43.541  1.00  0.00     0.066 C 
BRANCH   7   8
ATOM      8  C   UNL     1      83.723  48.577  43.559  1.00  0.00    -0.023 C 
ATOM      9  C   UNL     1      82.587  47.852  43.608  1.00  0.00    -0.080 C 
ATOM     10  C   UNL     1      81.244  48.538  43.629  1.00  0.00     0.039 C 
ATOM     11  C   UNL     1      82.507  46.351  43.636  1.00  0.00     0.039 C 
ENDBRANCH   7   8
ENDBRANCH   1   7
BRANCH   6  12
ATOM     12  O   UNL     1      87.748  48.011  42.128  1.00  0.00    -0.507 OA
ATOM     13  H   UNL     1      87.114  47.299  42.301  1.00  0.00     0.293 HD
ENDBRANCH   6  12
BRANCH   3  14
ATOM     14  C   UNL     1      86.310  52.790  44.877  1.00  0.00     0.211 C 
ATOM     15  C   UNL     1      84.998  52.607  45.628  1.00  0.00     0.131 C 
ATOM     16  O   UNL     1      86.205  53.846  43.908  1.00  0.00    -0.484 OA
ATOM     17  C   UNL     1      84.679  53.897  46.325  1.00  0.00     0.174 C 
ATOM     18  C   UNL     1      85.816  55.040  44.458  1.00  0.00     0.138 A 
ATOM     19  O   UNL     1      84.059  53.950  47.385  1.00  0.00    -0.294 OA
ATOM     20  C   UNL     1      85.090  55.141  45.648  1.00  0.00     0.102 A 
ATOM     21  C   UNL     1      86.160  56.191  43.749  1.00  0.00     0.093 A 
ATOM     22  C   UNL     1      84.738  56.398  46.147  1.00  0.00     0.133 A 
ATOM     23  C   UNL     1      85.801  57.437  44.257  1.00  0.00     0.123 A 
ATOM     24  C   UNL     1      85.099  57.550  45.454  1.00  0.00     0.093 A 
BRANCH  22  25
ATOM     25  O   UNL     1      84.032  56.569  47.308  1.00  0.00    -0.507 OA
ATOM     26  H   UNL     1      83.307  55.904  47.327  1.00  0.00     0.293 HD
ENDBRANCH  22  25
BRANCH  23  27
ATOM     27  O   UNL     1      86.127  58.589  43.602  1.00  0.00    -0.508 OA
ATOM     28  H   UNL     1      85.748  58.565  42.708  1.00  0.00     0.293 HD
ENDBRANCH  23  27
ENDBRANCH   3  14
BRANCH   5  29
ATOM     29  C   UNL     1      89.545  50.193  41.987  1.00  0.00     0.066 C 
BRANCH  29  30
ATOM     30  C   UNL     1      90.033  51.572  41.629  1.00  0.00    -0.023 C 
ATOM     31  C   UNL     1      89.750  52.303  40.532  1.00  0.00    -0.080 C 
ATOM     32  C   UNL     1      90.329  53.685  40.367  1.00  0.00     0.039 C 
ATOM     33  C   UNL     1      88.881  51.858  39.390  1.00  0.00     0.039 C 
ENDBRANCH  29  30
ENDBRANCH   5  29
TORSDOF 8
ENDMDL
MODEL 2
REMARK VINA RESULT:    -9.543      3.078      4.665
REMARK INTER + INTRA:         -14.407
REMARK INTER:                 -12.990
REMARK INTRA:                  -1.416
REMARK UNBOUND:                -1.237
REMARK SMILES CC(C)=CCc1cc([C@@H]2CC(=O)c3c(O)cc(O)cc3O2)cc(CC=C(C)C)c1O
REMARK SMILES IDX 23 1 22 2 8 3 7 4 6 5 29 6 24 7 25 8 26 9 27 10 28 11 30 12
REMARK SMILES IDX 9 14 10 15 21 16 11 17 20 18 12 19 13 20 19 21 14 22 17 23
REMARK SMILES IDX 16 24 15 25 18 27 5 29 4 30 2 31 1 32 3 33
REMARK H PARENT 30 13 15 26 18 28
ROOT
ATOM      1  C   UNL     1      87.001  52.593  41.082  1.00  0.00    -0.002 A 
ATOM      2  C   UNL     1      86.674  52.659  42.449  1.00  0.00     0.015 A 
ATOM      3  C   UNL     1      87.450  52.014  43.423  1.00  0.00    -0.006 A 
ATOM      4  C   UNL     1      88.576  51.290  43.009  1.00  0.00     0.015 A 
ATOM      5  C   UNL     1      88.916  51.184  41.650  1.00  0.00    -0.002 A 
ATOM      6  C   UNL     1      88.119  51.835  40.697  1.00  0.00     0.122 A 
ENDROOT
BRANCH   1   7
ATOM      7  C   UNL     1      86.120  53.337  40.103  1.00  0.00     0.066 C 
BRANCH   7   8
ATOM      8  C   UNL     1      84.666  53.282  40.493  1.00  0.00    -0.023 C 
ATOM      9  C   UNL     1      83.929  54.233  41.101  1.00  0.00    -0.080 C 
ATOM     10  C   UNL     1      82.471  53.993  41.402  1.00  0.00     0.039 C 
ATOM     11  C   UNL     1      84.431  55.579  41.545  1.00  0.00     0.039 C 
ENDBRANCH   7   8
ENDBRANCH   1   7
BRANCH   6  12
ATOM     12  O   UNL     1      88.483  51.701  39.385  1.00  0.00    -0.507 OA
ATOM     13  H   UNL     1      88.079  50.901  39.015  1.00  0.00     0.293 HD
ENDBRANCH   6  12
BRANCH   3  14
ATOM     14  C   UNL     1      87.094  52.144  44.892  1.00  0.00     0.211 C 
ATOM     15  C   UNL     1      86.806  50.775  45.495  1.00  0.00     0.131 C 
ATOM     16  O   UNL     1      85.954  53.011  45.016  1.00  0.00    -0.484 OA
ATOM     17  C   UNL     1      86.477  50.969  46.947  1.00  0.00     0.174 C 
ATOM     18  C   UNL     1      85.530  53.156  46.311  1.00  0.00     0.138 A 
ATOM     19  O   UNL     1      86.724  50.127  47.807  1.00  0.00    -0.294 OA
ATOM     20  C   UNL     1      85.770  52.210  47.312  1.00  0.00     0.102 A 
ATOM     21  C   UNL     1      84.800  54.309  46.599  1.00  0.00     0.093 A 
ATOM     22  C   UNL     1      85.310  52.438  48.612  1.00  0.00     0.133 A 
ATOM     23  C   UNL     1      84.347  54.522  47.899  1.00  0.00     0.123 A 
ATOM     24  C   UNL     1      84.601  53.598  48.909  1.00  0.00     0.093 A 
BRANCH  22  25
ATOM     25  O   UNL     1      85.515  51.556  49.640  1.00  0.00    -0.507 OA
ATOM     26  H   UNL     1      85.903  52.051  50.397  1.00  0.00     0.293 HD
ENDBRANCH  22  25
BRANCH  23  27
ATOM     27  O   UNL     1      83.639  55.642  48.227  1.00  0.00    -0.508 OA
ATOM     28  H   UNL     1      82.712  55.398  48.382  1.00  0.00     0.293 HD
ENDBRANCH  23  27
ENDBRANCH   3  14
BRANCH   5  29
ATOM     29  C   UNL     1      90.150  50.397  41.264  1.00  0.00     0.066 C 
BRANCH  29  30
ATOM     30  C   UNL     1      89.955  48.915  41.448  1.00  0.00    -0.023 C 
ATOM     31  C   UNL     1      90.457  48.115  42.411  1.00  0.00    -0.080 C 
ATOM     32  C   UNL     1      90.124  46.646  42.432  1.00  0.00     0.039 C 
ATOM     33  C   UNL     1      91.371  48.557  43.518  1.00  0.00     0.039 C 
ENDBRANCH  29  30
ENDBRANCH   5  29
TORSDOF 8
ENDMDL
MODEL 3
REMARK VINA RESULT:    -9.536      2.620      6.740
REMARK INTER + INTRA:         -14.397
REMARK INTER:                 -12.980
REMARK INTRA:                  -1.417
REMARK UNBOUND:                -1.237
REMARK SMILES CC(C)=CCc1cc([C@@H]2CC(=O)c3c(O)cc(O)cc3O2)cc(CC=C(C)C)c1O
REMARK SMILES IDX 23 1 22 2 8 3 7 4 6 5 29 6 24 7 25 8 26 9 27 10 28 11 30 12
REMARK SMILES IDX 9 14 10 15 21 16 11 17 20 18 12 19 13 20 19 21 14 22 17 23
REMARK SMILES IDX 16 24 15 25 18 27 5 29 4 30 2 31 1 32 3 33
REMARK H PARENT 30 13 15 26 18 28
ROOT
ATOM      1  C   UNL     1      86.859  53.746  43.021  1.00  0.00    -0.002 A 
ATOM      2  C   UNL     1      85.842  52.843  43.383  1.00  0.00     0.015 A 
ATOM      3  C   UNL     1      85.919  51.481  43.062  1.00  0.00    -0.006 A 
ATOM      4  C   UNL     1      87.044  51.020  42.365  1.00  0.00     0.015 A 
ATOM      5  C   UNL     1      88.066  51.899  41.969  1.00  0.00    -0.002 A 
ATOM      6  C   UNL     1      87.960  53.258  42.298  1.00  0.00     0.122 A 
ENDROOT
BRANCH   1   7
ATOM      7  C   UNL     1      86.703  55.195  43.426  1.00  0.00     0.066 C 
BRANCH   7   8
ATOM      8  C   UNL     1      86.783  55.379  44.919  1.00  0.00    -0.023 C 
ATOM      9  C   UNL     1      85.803  55.747  45.768  1.00  0.00    -0.080 C 
ATOM     10  C   UNL     1      86.078  55.867  47.245  1.00  0.00     0.039 C 
ATOM     11  C   UNL     1      84.388  56.079  45.381  1.00  0.00     0.039 C 
ENDBRANCH   7   8
ENDBRANCH   1   7
BRANCH   6  12
ATOM     12  O   UNL     1      88.975  54.079  41.887  1.00  0.00    -0.507 OA
ATOM     13  H   UNL     1      88.635  54.977  41.758  1.00  0.00     0.293 HD
ENDBRANCH   6  12
BRANCH   3  14
ATOM     14  C   UNL     1      84.824  50.529  43.506  1.00  0.00     0.211 C 
ATOM     15  C   UNL     1      85.242  49.084  43.267  1.00  0.00     0.131 C 
ATOM     16  O   UNL     1      83.620  50.842  42.786  1.00  0.00    -0.484 OA
ATOM     17  C   UNL     1      84.129  48.195  43.740  1.00  0.00     0.174 C 
ATOM     18  C   UNL     1      82.580  50.002  43.092  1.00  0.00     0.138 A 
ATOM     19  O   UNL     1      84.318  47.068  44.192  1.00  0.00    -0.294 OA
ATOM     20  C   UNL     1      82.755  48.706  43.584  1.00  0.00     0.102 A 
ATOM     21  C   UNL     1      81.296  50.496  42.860  1.00  0.00     0.093 A 
ATOM     22  C   UNL     1      81.640  47.915  43.879  1.00  0.00     0.133 A 
ATOM     23  C   UNL     1      80.195  49.696  43.157  1.00  0.00     0.123 A 
ATOM     24  C   UNL     1      80.357  48.412  43.670  1.00  0.00     0.093 A 
BRANCH  22  25
ATOM     25  O   UNL     1      81.739  46.640  44.368  1.00  0.00    -0.507 OA
ATOM     26  H   UNL     1      81.591  46.670  45.340  1.00  0.00     0.293 HD
ENDBRANCH  22  25
BRANCH  23  27
ATOM     27  O   UNL     1      78.921  50.143  42.957  1.00  0.00    -0.508 OA
ATOM     28  H   UNL     1      78.753  50.210  42.003  1.00  0.00     0.293 HD
ENDBRANCH  23  27
ENDBRANCH   3  14
BRANCH   5  29
ATOM     29  C   UNL     1      89.262  51.342  41.226  1.00  0.00     0.066 C 
BRANCH  29  30
ATOM     30  C   UNL     1      89.233  49.838  41.155  1.00  0.00    -0.023 C 
ATOM     31  C   UNL     1      90.083  48.954  41.716  1.00  0.00    -0.080 C 
ATOM     32  C   UNL     1      89.867  47.473  41.542  1.00  0.00     0.039 C 
ATOM     33  C   UNL     1      91.293  49.310  42.533  1.00  0.00     0.039 C 
ENDBRANCH  29  30
ENDBRANCH   5  29
TORSDOF 8
ENDMDL
MODEL 4
REMARK VINA RESULT:    -9.515      4.033      7.284
REMARK INTER + INTRA:         -14.368
REMARK INTER:                 -12.970
REMARK INTRA:                  -1.398
REMARK UNBOUND:                -1.237
REMARK SMILES CC(C)=CCc1cc([C@@H]2CC(=O)c3c(O)cc(O)cc3O2)cc(CC=C(C)C)c1O
REMARK SMILES IDX 23 1 22 2 8 3 7 4 6 5 29 6 24 7 25 8 26 9 27 10 28 11 30 12
REMARK SMILES IDX 9 14 10 15 21 16 11 17 20 18 12 19 13 20 19 21 14 22 17 23
REMARK SMILES IDX 16 24 15 25 18 27 5 29 4 30 2 31 1 32 3 33
REMARK H PARENT 30 13 15 26 18 28
ROOT
ATOM      1  C   UNL     1      87.545  49.538  43.499  1.00  0.00    -0.002 A 
ATOM      2  C   UNL     1      86.181  49.374  43.803  1.00  0.00     0.015 A 
ATOM      3  C   UNL     1      85.482  48.214  43.440  1.00  0.00    -0.006 A 
ATOM      4  C   UNL     1      86.172  47.202  42.761  1.00  0.00     0.015 A 
ATOM      5  C   UNL     1      87.528  47.344  42.421  1.00  0.00    -0.002 A 
ATOM      6  C   UNL     1      88.201  48.518  42.791  1.00  0.00     0.122 A 
ENDROOT
BRANCH   1   7
ATOM      7  C   UNL     1      88.226  50.814  43.947  1.00  0.00     0.066 C 
BRANCH   7   8
ATOM      8  C   UNL     1      87.380  51.598  44.914  1.00  0.00    -0.023 C 
ATOM      9  C   UNL     1      87.274  51.439  46.249  1.00  0.00    -0.080 C 
ATOM     10  C   UNL     1      86.373  52.340  47.056  1.00  0.00     0.039 C 
ATOM     11  C   UNL     1      87.989  50.399  47.066  1.00  0.00     0.039 C 
ENDBRANCH   7   8
ENDBRANCH   1   7
BRANCH   6  12
ATOM     12  O   UNL     1      89.518  48.617  42.435  1.00  0.00    -0.507 OA
ATOM     13  H   UNL     1      89.621  49.299  41.754  1.00  0.00     0.293 HD
ENDBRANCH   6  12
BRANCH   3  14
ATOM     14  C   UNL     1      84.022  48.052  43.823  1.00  0.00     0.211 C 
ATOM     15  C   UNL     1      83.551  46.631  43.544  1.00  0.00     0.131 C 
ATOM     16  O   UNL     1      83.242  49.007  43.084  1.00  0.00    -0.484 OA
ATOM     17  C   UNL     1      82.112  46.530  43.957  1.00  0.00     0.174 C 
ATOM     18  C   UNL     1      81.898  48.907  43.334  1.00  0.00     0.138 A 
ATOM     19  O   UNL     1      81.605  45.490  44.373  1.00  0.00    -0.294 OA
ATOM     20  C   UNL     1      81.282  47.737  43.784  1.00  0.00     0.102 A 
ATOM     21  C   UNL     1      81.135  50.049  43.087  1.00  0.00     0.093 A 
ATOM     22  C   UNL     1      79.905  47.720  44.022  1.00  0.00     0.133 A 
ATOM     23  C   UNL     1      79.764  50.017  43.327  1.00  0.00     0.123 A 
ATOM     24  C   UNL     1      79.143  48.864  43.799  1.00  0.00     0.093 A 
BRANCH  22  25
ATOM     25  O   UNL     1      79.238  46.609  44.468  1.00  0.00    -0.507 OA
ATOM     26  H   UNL     1      78.272  46.773  44.378  1.00  0.00     0.293 HD
ENDBRANCH  22  25
BRANCH  23  27
ATOM     27  O   UNL     1      78.982  51.115  43.111  1.00  0.00    -0.508 OA
ATOM     28  H   UNL     1      78.053  50.881  43.275  1.00  0.00     0.293 HD
ENDBRANCH  23  27
ENDBRANCH   3  14
BRANCH   5  29
ATOM     29  C   UNL     1      88.223  46.213  41.695  1.00  0.00     0.066 C 
BRANCH  29  30
ATOM     30  C   UNL     1      88.657  45.120  42.635  1.00  0.00    -0.023 C 
ATOM     31  C   UNL     1      88.003  43.988  42.965  1.00  0.00    -0.080 C 
ATOM     32  C   UNL     1      88.623  43.000  43.920  1.00  0.00     0.039 C 
ATOM     33  C   UNL     1      86.644  43.591  42.463  1.00  0.00     0.039 C 
ENDBRANCH  29  30
ENDBRANCH   5  29
TORSDOF 8
ENDMDL
MODEL 5
REMARK VINA RESULT:    -9.439      0.117      5.045
REMARK INTER + INTRA:         -14.263
REMARK INTER:                 -12.994
REMARK INTRA:                  -1.270
REMARK UNBOUND:                -1.237
REMARK SMILES CC(C)=CCc1cc([C@@H]2CC(=O)c3c(O)cc(O)cc3O2)cc(CC=C(C)C)c1O
REMARK SMILES IDX 23 1 22 2 8 3 7 4 6 5 29 6 24 7 25 8 26 9 27 10 28 11 30 12
REMARK SMILES IDX 9 14 10 15 21 16 11 17 20 18 12 19 13 20 19 21 14 22 17 23
REMARK SMILES IDX 16 24 15 25 18 27 5 29 4 30 2 31 1 32 3 33
REMARK H PARENT 30 13 15 26 18 28
ROOT
ATOM      1  C   UNL     1      88.210  50.233  42.707  1.00  0.00    -0.002 A 
ATOM      2  C   UNL     1      87.819  51.417  43.359  1.00  0.00     0.015 A 
ATOM      3  C   UNL     1      86.602  51.508  44.049  1.00  0.00    -0.006 A 
ATOM      4  C   UNL     1      85.767  50.384  44.084  1.00  0.00     0.015 A 
ATOM      5  C   UNL     1      86.117  49.194  43.424  1.00  0.00    -0.002 A 
ATOM      6  C   UNL     1      87.338  49.133  42.735  1.00  0.00     0.122 A 
ENDROOT
BRANCH   1   7
ATOM      7  C   UNL     1      89.550  50.218  42.003  1.00  0.00     0.066 C 
BRANCH   7   8
ATOM      8  C   UNL     1      90.020  51.603  41.648  1.00  0.00    -0.023 C 
ATOM      9  C   UNL     1      89.735  52.324  40.545  1.00  0.00    -0.080 C 
ATOM     10  C   UNL     1      90.298  53.712  40.373  1.00  0.00     0.039 C 
ATOM     11  C   UNL     1      88.876  51.867  39.398  1.00  0.00     0.039 C 
ENDBRANCH   7   8
ENDBRANCH   1   7
BRANCH   6  12
ATOM     12  O   UNL     1      87.636  47.958  42.102  1.00  0.00    -0.507 OA
ATOM     13  H   UNL     1      87.081  47.247  42.455  1.00  0.00     0.293 HD
ENDBRANCH   6  12
BRANCH   3  14
ATOM     14  C   UNL     1      86.232  52.787  44.778  1.00  0.00     0.211 C 
ATOM     15  C   UNL     1      84.939  52.601  45.561  1.00  0.00     0.131 C 
ATOM     16  O   UNL     1      86.103  53.846  43.815  1.00  0.00    -0.484 OA
ATOM     17  C   UNL     1      84.637  53.889  46.269  1.00  0.00     0.174 C 
ATOM     18  C   UNL     1      85.727  55.038  44.379  1.00  0.00     0.138 A 
ATOM     19  O   UNL     1      84.043  53.939  47.344  1.00  0.00    -0.294 OA
ATOM     20  C   UNL     1      85.030  55.135  45.586  1.00  0.00     0.102 A 
ATOM     21  C   UNL     1      86.052  56.191  43.664  1.00  0.00     0.093 A 
ATOM     22  C   UNL     1      84.691  56.391  46.097  1.00  0.00     0.133 A 
ATOM     23  C   UNL     1      85.706  57.436  44.184  1.00  0.00     0.123 A 
ATOM     24  C   UNL     1      85.033  57.545  45.398  1.00  0.00     0.093 A 
BRANCH  22  25
ATOM     25  O   UNL     1      84.013  56.558  47.276  1.00  0.00    -0.507 OA
ATOM     26  H   UNL     1      83.184  57.054  47.086  1.00  0.00     0.293 HD
ENDBRANCH  22  25
BRANCH  23  27
ATOM     27  O   UNL     1      86.015  58.590  43.525  1.00  0.00    -0.508 OA
ATOM     28  H   UNL     1      85.910  58.448  42.570  1.00  0.00     0.293 HD
ENDBRANCH  23  27
ENDBRANCH   3  14
BRANCH   5  29
ATOM     29  C   UNL     1      85.179  48.009  43.504  1.00  0.00     0.066 C 
BRANCH  29  30
ATOM     30  C   UNL     1      83.733  48.432  43.509  1.00  0.00    -0.023 C 
ATOM     31  C   UNL     1      82.632  47.657  43.573  1.00  0.00    -0.080 C 
ATOM     32  C   UNL     1      81.260  48.280  43.586  1.00  0.00     0.039 C 
ATOM     33  C   UNL     1      82.628  46.155  43.624  1.00  0.00     0.039 C 
ENDBRANCH  29  30
ENDBRANCH   5  29
TORSDOF 8
ENDMDL
MODEL 6
REMARK VINA RESULT:    -9.407      2.680      6.949
REMARK INTER + INTRA:         -14.219
REMARK INTER:                 -12.904
REMARK INTRA:                  -1.316
REMARK UNBOUND:                -1.237
REMARK SMILES CC(C)=CCc1cc([C@@H]2CC(=O)c3c(O)cc(O)cc3O2)cc(CC=C(C)C)c1O
REMARK SMILES IDX 23 1 22 2 8 3 7 4 6 5 29 6 24 7 25 8 26 9 27 10 28 11 30 12
REMARK SMILES IDX 9 14 10 15 21 16 11 17 20 18 12 19 13 20 19 21 14 22 17 23
REMARK SMILES IDX 16 24 15 25 18 27 5 29 4 30 2 31 1 32 3 33
REMARK H PARENT 30 13 15 26 18 28
ROOT
ATOM      1  C   UNL     1      87.979  51.515  41.826  1.00  0.00    -0.002 A 
ATOM      2  C   UNL     1      86.922  50.711  42.293  1.00  0.00     0.015 A 
ATOM      3  C   UNL     1      85.863  51.250  43.037  1.00  0.00    -0.006 A 
ATOM      4  C   UNL     1      85.869  52.623  43.313  1.00  0.00     0.015 A 
ATOM      5  C   UNL     1      86.921  53.449  42.882  1.00  0.00    -0.002 A 
ATOM      6  C   UNL     1      87.971  52.882  42.145  1.00  0.00     0.122 A 
ENDROOT
BRANCH   1   7
ATOM      7  C   UNL     1      89.071  50.853  41.013  1.00  0.00     0.066 C 
BRANCH   7   8
ATOM      8  C   UNL     1      90.073  50.142  41.883  1.00  0.00    -0.023 C 
ATOM      9  C   UNL     1      90.137  48.828  42.178  1.00  0.00    -0.080 C 
ATOM     10  C   UNL     1      91.233  48.298  43.068  1.00  0.00     0.039 C 
ATOM     11  C   UNL     1      89.176  47.775  41.700  1.00  0.00     0.039 C 
ENDBRANCH   7   8
ENDBRANCH   1   7
BRANCH   6  12
ATOM     12  O   UNL     1      88.978  53.721  41.751  1.00  0.00    -0.507 OA
ATOM     13  H   UNL     1      89.756  53.201  41.500  1.00  0.00     0.293 HD
ENDBRANCH   6  12
BRANCH   3  14
ATOM     14  C   UNL     1      84.717  50.362  43.485  1.00  0.00     0.211 C 
ATOM     15  C   UNL     1      85.045  48.896  43.233  1.00  0.00     0.131 C 
ATOM     16  O   UNL     1      83.527  50.751  42.779  1.00  0.00    -0.484 OA
ATOM     17  C   UNL     1      83.886  48.072  43.711  1.00  0.00     0.174 C 
ATOM     18  C   UNL     1      82.442  49.973  43.089  1.00  0.00     0.138 A 
ATOM     19  O   UNL     1      84.011  46.932  44.153  1.00  0.00    -0.294 OA
ATOM     20  C   UNL     1      82.543  48.665  43.571  1.00  0.00     0.102 A 
ATOM     21  C   UNL     1      81.187  50.544  42.873  1.00  0.00     0.093 A 
ATOM     22  C   UNL     1      81.386  47.941  43.871  1.00  0.00     0.133 A 
ATOM     23  C   UNL     1      80.043  49.810  43.175  1.00  0.00     0.123 A 
ATOM     24  C   UNL     1      80.132  48.515  43.678  1.00  0.00     0.093 A 
BRANCH  22  25
ATOM     25  O   UNL     1      81.412  46.658  44.351  1.00  0.00    -0.507 OA
ATOM     26  H   UNL     1      80.546  46.471  44.778  1.00  0.00     0.293 HD
ENDBRANCH  22  25
BRANCH  23  27
ATOM     27  O   UNL     1      78.797  50.334  42.990  1.00  0.00    -0.508 OA
ATOM     28  H   UNL     1      78.720  51.159  43.497  1.00  0.00     0.293 HD
ENDBRANCH  23  27
ENDBRANCH   3  14
BRANCH   5  29
ATOM     29  C   UNL     1      86.869  54.927  43.203  1.00  0.00     0.066 C 
BRANCH  29  30
ATOM     30  C   UNL     1      86.445  55.183  44.625  1.00  0.00    -0.023 C 
ATOM     31  C   UNL     1      86.062  56.345  45.191  1.00  0.00    -0.080 C 
ATOM     32  C   UNL     1      85.652  56.388  46.640  1.00  0.00     0.039 C 
ATOM     33  C   UNL     1      86.009  57.675  44.494  1.00  0.00     0.039 C 
ENDBRANCH  29  30
ENDBRANCH   5  29
TORSDOF 8
ENDMDL
MODEL 7
REMARK VINA RESULT:    -9.401      2.465      8.072
REMARK INTER + INTRA:         -14.210
REMARK INTER:                 -12.807
REMARK INTRA:                  -1.404
REMARK UNBOUND:                -1.237
REMARK SMILES CC(C)=CCc1cc([C@@H]2CC(=O)c3c(O)cc(O)cc3O2)cc(CC=C(C)C)c1O
REMARK SMILES IDX 23 1 22 2 8 3 7 4 6 5 29 6 24 7 25 8 26 9 27 10 28 11 30 12
REMARK SMILES IDX 9 14 10 15 21 16 11 17 20 18 12 19 13 20 19 21 14 22 17 23
REMARK SMILES IDX 16 24 15 25 18 27 5 29 4 30 2 31 1 32 3 33
REMARK H PARENT 30 13 15 26 18 28
ROOT
ATOM      1  C   UNL     1      84.859  55.059  43.999  1.00  0.00    -0.002 A 
ATOM      2  C   UNL     1      85.420  53.875  43.486  1.00  0.00     0.015 A 
ATOM      3  C   UNL     1      86.110  52.973  44.308  1.00  0.00    -0.006 A 
ATOM      4  C   UNL     1      86.234  53.269  45.671  1.00  0.00     0.015 A 
ATOM      5  C   UNL     1      85.707  54.454  46.211  1.00  0.00    -0.002 A 
ATOM      6  C   UNL     1      85.027  55.343  45.365  1.00  0.00     0.122 A 
ENDROOT
BRANCH   1   7
ATOM      7  C   UNL     1      84.114  55.967  43.044  1.00  0.00     0.066 C 
BRANCH   7   8
ATOM      8  C   UNL     1      84.479  55.700  41.608  1.00  0.00    -0.023 C 
ATOM      9  C   UNL     1      83.772  55.025  40.680  1.00  0.00    -0.080 C 
ATOM     10  C   UNL     1      84.304  54.871  39.277  1.00  0.00     0.039 C 
ATOM     11  C   UNL     1      82.440  54.362  40.903  1.00  0.00     0.039 C 
ENDBRANCH   7   8
ENDBRANCH   1   7
BRANCH   6  12
ATOM     12  O   UNL     1      84.535  56.487  45.930  1.00  0.00    -0.507 OA
ATOM     13  H   UNL     1      83.731  56.762  45.464  1.00  0.00     0.293 HD
ENDBRANCH   6  12
BRANCH   3  14
ATOM     14  C   UNL     1      86.663  51.683  43.729  1.00  0.00     0.211 C 
ATOM     15  C   UNL     1      86.828  51.802  42.220  1.00  0.00     0.131 C 
ATOM     16  O   UNL     1      85.772  50.607  44.066  1.00  0.00    -0.484 OA
ATOM     17  C   UNL     1      87.392  50.507  41.712  1.00  0.00     0.174 C 
ATOM     18  C   UNL     1      86.169  49.402  43.546  1.00  0.00     0.138 A 
ATOM     19  O   UNL     1      88.122  50.435  40.726  1.00  0.00    -0.294 OA
ATOM     20  C   UNL     1      86.978  49.278  42.415  1.00  0.00     0.102 A 
ATOM     21  C   UNL     1      85.696  48.261  44.196  1.00  0.00     0.093 A 
ATOM     22  C   UNL     1      87.345  48.011  41.953  1.00  0.00     0.133 A 
ATOM     23  C   UNL     1      86.068  47.005  43.725  1.00  0.00     0.123 A 
ATOM     24  C   UNL     1      86.894  46.871  42.612  1.00  0.00     0.093 A 
BRANCH  22  25
ATOM     25  O   UNL     1      88.139  47.818  40.854  1.00  0.00    -0.507 OA
ATOM     26  H   UNL     1      88.999  48.271  41.012  1.00  0.00     0.293 HD
ENDBRANCH  22  25
BRANCH  23  27
ATOM     27  O   UNL     1      85.639  45.863  44.336  1.00  0.00    -0.508 OA
ATOM     28  H   UNL     1      86.250  45.139  44.124  1.00  0.00     0.293 HD
ENDBRANCH  23  27
ENDBRANCH   3  14
BRANCH   5  29
ATOM     29  C   UNL     1      85.864  54.717  47.693  1.00  0.00     0.066 C 
BRANCH  29  30
ATOM     30  C   UNL     1      84.833  53.984  48.510  1.00  0.00    -0.023 C 
ATOM     31  C   UNL     1      84.897  52.738  49.021  1.00  0.00    -0.080 C 
ATOM     32  C   UNL     1      83.755  52.189  49.836  1.00  0.00     0.039 C 
ATOM     33  C   UNL     1      86.045  51.785  48.845  1.00  0.00     0.039 C 
ENDBRANCH  29  30
ENDBRANCH   5  29
TORSDOF 8
ENDMDL
MODEL 8
REMARK VINA RESULT:    -9.212      1.962      5.970
REMARK INTER + INTRA:         -13.949
REMARK INTER:                 -12.779
REMARK INTRA:                  -1.170
REMARK UNBOUND:                -1.237
REMARK SMILES CC(C)=CCc1cc([C@@H]2CC(=O)c3c(O)cc(O)cc3O2)cc(CC=C(C)C)c1O
REMARK SMILES IDX 23 1 22 2 8 3 7 4 6 5 29 6 24 7 25 8 26 9 27 10 28 11 30 12
REMARK SMILES IDX 9 14 10 15 21 16 11 17 20 18 12 19 13 20 19 21 14 22 17 23
REMARK SMILES IDX 16 24 15 25 18 27 5 29 4 30 2 31 1 32 3 33
REMARK H PARENT 30 13 15 26 18 28
ROOT
ATOM      1  C   UNL     1      85.973  48.145  43.092  1.00  0.00    -0.002 A 
ATOM      2  C   UNL     1      86.007  49.535  43.306  1.00  0.00     0.015 A 
ATOM      3  C   UNL     1      84.852  50.257  43.638  1.00  0.00    -0.006 A 
ATOM      4  C   UNL     1      83.641  49.563  43.758  1.00  0.00     0.015 A 
ATOM      5  C   UNL     1      83.568  48.179  43.527  1.00  0.00    -0.002 A 
ATOM      6  C   UNL     1      84.738  47.483  43.190  1.00  0.00     0.122 A 
ENDROOT
BRANCH   1   7
ATOM      7  C   UNL     1      87.271  47.444  42.758  1.00  0.00     0.066 C 
BRANCH   7   8
ATOM      8  C   UNL     1      88.374  48.416  42.433  1.00  0.00    -0.023 C 
ATOM      9  C   UNL     1      89.683  48.159  42.242  1.00  0.00    -0.080 C 
ATOM     10  C   UNL     1      90.640  49.276  41.911  1.00  0.00     0.039 C 
ATOM     11  C   UNL     1      90.334  46.807  42.338  1.00  0.00     0.039 C 
ENDBRANCH   7   8
ENDBRANCH   1   7
BRANCH   6  12
ATOM     12  O   UNL     1      84.620  46.138  42.969  1.00  0.00    -0.507 OA
ATOM     13  H   UNL     1      83.762  45.949  42.560  1.00  0.00     0.293 HD
ENDBRANCH   6  12
BRANCH   3  14
ATOM     14  C   UNL     1      84.934  51.748  43.906  1.00  0.00     0.211 C 
ATOM     15  C   UNL     1      86.267  52.306  43.423  1.00  0.00     0.131 C 
ATOM     16  O   UNL     1      84.763  51.974  45.315  1.00  0.00    -0.484 OA
ATOM     17  C   UNL     1      86.280  53.781  43.700  1.00  0.00     0.174 C 
ATOM     18  C   UNL     1      84.865  53.297  45.661  1.00  0.00     0.138 A 
ATOM     19  O   UNL     1      86.890  54.588  43.002  1.00  0.00    -0.294 OA
ATOM     20  C   UNL     1      85.569  54.239  44.907  1.00  0.00     0.102 A 
ATOM     21  C   UNL     1      84.240  53.676  46.850  1.00  0.00     0.093 A 
ATOM     22  C   UNL     1      85.618  55.572  45.326  1.00  0.00     0.133 A 
ATOM     23  C   UNL     1      84.299  55.007  47.255  1.00  0.00     0.123 A 
ATOM     24  C   UNL     1      84.978  55.960  46.499  1.00  0.00     0.093 A 
BRANCH  22  25
ATOM     25  O   UNL     1      86.285  56.547  44.633  1.00  0.00    -0.507 OA
ATOM     26  H   UNL     1      86.402  56.241  43.705  1.00  0.00     0.293 HD
ENDBRANCH  22  25
BRANCH  23  27
ATOM     27  O   UNL     1      83.693  55.425  48.405  1.00  0.00    -0.508 OA
ATOM     28  H   UNL     1      84.339  55.905  48.949  1.00  0.00     0.293 HD
ENDBRANCH  23  27
ENDBRANCH   3  14
BRANCH   5  29
ATOM     29  C   UNL     1      82.233  47.481  43.680  1.00  0.00     0.066 C 
BRANCH  29  30
ATOM     30  C   UNL     1      81.145  48.430  44.111  1.00  0.00    -0.023 C 
ATOM     31  C   UNL     1      79.826  48.188  44.245  1.00  0.00    -0.080 C 
ATOM     32  C   UNL     1      78.895  49.277  44.714  1.00  0.00     0.039 C 
ATOM     33  C   UNL     1      79.147  46.880  43.951  1.00  0.00     0.039 C 
ENDBRANCH  29  30
ENDBRANCH   5  29
TORSDOF 8
ENDMDL
MODEL 9
REMARK VINA RESULT:    -9.194      2.500      6.015
REMARK INTER + INTRA:         -13.925
REMARK INTER:                 -12.688
REMARK INTRA:                  -1.237
REMARK UNBOUND:                -1.237
REMARK SMILES CC(C)=CCc1cc([C@@H]2CC(=O)c3c(O)cc(O)cc3O2)cc(CC=C(C)C)c1O
REMARK SMILES IDX 23 1 22 2 8 3 7 4 6 5 29 6 24 7 25 8 26 9 27 10 28 11 30 12
REMARK SMILES IDX 9 14 10 15 21 16 11 17 20 18 12 19 13 20 19 21 14 22 17 23
REMARK SMILES IDX 16 24 15 25 18 27 5 29 4 30 2 31 1 32 3 33
REMARK H PARENT 30 13 15 26 18 28
ROOT
ATOM      1  C   UNL     1      86.433  47.016  42.667  1.00  0.00    -0.002 A 
ATOM      2  C   UNL     1      86.457  48.406  42.883  1.00  0.00     0.015 A 
ATOM      3  C   UNL     1      85.319  49.103  43.315  1.00  0.00    -0.006 A 
ATOM      4  C   UNL     1      84.138  48.383  43.536  1.00  0.00     0.015 A 
ATOM      5  C   UNL     1      84.074  46.998  43.307  1.00  0.00    -0.002 A 
ATOM      6  C   UNL     1      85.225  46.328  42.868  1.00  0.00     0.122 A 
ENDROOT
BRANCH   1   7
ATOM      7  C   UNL     1      87.712  46.343  42.219  1.00  0.00     0.066 C 
BRANCH   7   8
ATOM      8  C   UNL     1      88.700  47.325  41.649  1.00  0.00    -0.023 C 
ATOM      9  C   UNL     1      89.997  47.491  41.979  1.00  0.00    -0.080 C 
ATOM     10  C   UNL     1      90.836  48.531  41.280  1.00  0.00     0.039 C 
ATOM     11  C   UNL     1      90.738  46.715  43.033  1.00  0.00     0.039 C 
ENDBRANCH   7   8
ENDBRANCH   1   7
BRANCH   6  12
ATOM     12  O   UNL     1      85.116  44.981  42.652  1.00  0.00    -0.507 OA
ATOM     13  H   UNL     1      84.246  44.781  42.276  1.00  0.00     0.293 HD
ENDBRANCH   6  12
BRANCH   3  14
ATOM     14  C   UNL     1      85.393  50.595  43.581  1.00  0.00     0.211 C 
ATOM     15  C   UNL     1      84.632  50.951  44.851  1.00  0.00     0.131 C 
ATOM     16  O   UNL     1      84.855  51.293  42.445  1.00  0.00    -0.484 OA
ATOM     17  C   UNL     1      84.756  52.431  45.066  1.00  0.00     0.174 C 
ATOM     18  C   UNL     1      84.841  52.653  42.611  1.00  0.00     0.138 A 
ATOM     19  O   UNL     1      84.756  52.948  46.181  1.00  0.00    -0.294 OA
ATOM     20  C   UNL     1      84.816  53.278  43.861  1.00  0.00     0.102 A 
ATOM     21  C   UNL     1      84.823  53.420  41.445  1.00  0.00     0.093 A 
ATOM     22  C   UNL     1      84.811  54.674  43.944  1.00  0.00     0.133 A 
ATOM     23  C   UNL     1      84.816  54.809  41.544  1.00  0.00     0.123 A 
ATOM     24  C   UNL     1      84.816  55.442  42.784  1.00  0.00     0.093 A 
BRANCH  22  25
ATOM     25  O   UNL     1      84.792  55.349  45.135  1.00  0.00    -0.507 OA
ATOM     26  H   UNL     1      85.212  54.780  45.819  1.00  0.00     0.293 HD
ENDBRANCH  22  25
BRANCH  23  27
ATOM     27  O   UNL     1      84.811  55.598  40.429  1.00  0.00    -0.508 OA
ATOM     28  H   UNL     1      84.468  55.085  39.679  1.00  0.00     0.293 HD
ENDBRANCH  23  27
ENDBRANCH   3  14
BRANCH   5  29
ATOM     29  C   UNL     1      82.772  46.272  43.572  1.00  0.00     0.066 C 
BRANCH  29  30
ATOM     30  C   UNL     1      81.595  47.212  43.594  1.00  0.00    -0.023 C 
ATOM     31  C   UNL     1      80.404  47.051  44.204  1.00  0.00    -0.080 C 
ATOM     32  C   UNL     1      79.354  48.129  44.123  1.00  0.00     0.039 C 
ATOM     33  C   UNL     1      79.986  45.841  44.991  1.00  0.00     0.039 C 
ENDBRANCH  29  30
ENDBRANCH   5  29
TORSDOF 8
ENDMDL
