MODEL 1
REMARK VINA RESULT:    -9.462      0.000      0.000
REMARK INTER + INTRA:         -14.391
REMARK INTER:                 -13.311
REMARK INTRA:                  -1.080
REMARK UNBOUND:                -1.056
REMARK SMILES C=C(C)/C=C/c1cc([C@@H]2CC(=O)c3c(O)cc(O)cc3O2)cc(CC=C(C)C)c1OC
REMARK SMILES IDX 29 1 23 2 22 3 8 4 7 5 6 6 30 7 31 8 24 9 25 10 26 11 27 12
REMARK SMILES IDX 28 13 5 14 4 15 2 16 1 17 3 18 9 19 10 20 21 21 11 22 20 23
REMARK SMILES IDX 12 24 13 25 19 26 14 27 17 28 16 29 15 30 18 32
REMARK H PARENT 15 31 18 33
ROOT
ATOM      1  C   UNL     1      84.593  47.562  43.281  1.00  0.00     0.129 A 
ATOM      2  C   UNL     1      85.862  48.144  43.116  1.00  0.00    -0.001 A 
ATOM      3  C   UNL     1      86.005  49.525  43.334  1.00  0.00     0.015 A 
ATOM      4  C   UNL     1      84.914  50.324  43.709  1.00  0.00    -0.006 A 
ATOM      5  C   UNL     1      83.653  49.721  43.838  1.00  0.00     0.019 A 
ATOM      6  C   UNL     1      83.472  48.349  43.608  1.00  0.00     0.017 A 
ENDROOT
BRANCH   1   7
ATOM      7  O   UNL     1      84.464  46.213  43.048  1.00  0.00    -0.496 OA
ATOM      8  C   UNL     1      84.693  45.475  44.251  1.00  0.00     0.278 C 
ENDBRANCH   1   7
BRANCH   2   9
ATOM      9  C   UNL     1      87.065  47.346  42.665  1.00  0.00     0.066 C 
BRANCH   9  10
ATOM     10  C   UNL     1      88.196  48.235  42.222  1.00  0.00    -0.023 C 
ATOM     11  C   UNL     1      89.496  47.918  42.055  1.00  0.00    -0.080 C 
ATOM     12  C   UNL     1      90.103  46.568  42.315  1.00  0.00     0.039 C 
ATOM     13  C   UNL     1      90.480  48.957  41.584  1.00  0.00     0.039 C 
ENDBRANCH   9  10
ENDBRANCH   2   9
BRANCH   6  14
ATOM     14  C   UNL     1      82.101  47.824  43.737  1.00  0.00     0.012 C 
ATOM     15  C   UNL     1      81.045  48.602  44.025  1.00  0.00     0.003 C 
BRANCH  15  16
ATOM     16  C   UNL     1      79.668  48.153  44.181  1.00  0.00    -0.058 C 
ATOM     17  C   UNL     1      79.343  46.884  43.885  1.00  0.00     0.012 C 
ATOM     18  C   UNL     1      78.623  49.117  44.676  1.00  0.00     0.043 C 
ENDBRANCH  15  16
ENDBRANCH   6  14
BRANCH   4  19
ATOM     19  C   UNL     1      85.068  51.819  43.918  1.00  0.00     0.211 C 
ATOM     20  C   UNL     1      86.444  52.286  43.477  1.00  0.00     0.131 C 
ATOM     21  O   UNL     1      84.861  52.106  45.310  1.00  0.00    -0.484 OA
ATOM     22  C   UNL     1      86.495  53.779  43.650  1.00  0.00     0.174 C 
ATOM     23  C   UNL     1      85.043  53.429  45.621  1.00  0.00     0.138 A 
ATOM     24  O   UNL     1      87.109  54.478  42.852  1.00  0.00    -0.294 OA
ATOM     25  C   UNL     1      85.807  54.320  44.853  1.00  0.00     0.102 A 
ATOM     26  C   UNL     1      84.424  53.854  46.799  1.00  0.00     0.093 A 
ATOM     27  C   UNL     1      85.915  55.655  45.266  1.00  0.00     0.133 A 
ATOM     28  C   UNL     1      84.545  55.180  47.192  1.00  0.00     0.123 A 
ATOM     29  C   UNL     1      85.280  56.085  46.434  1.00  0.00     0.093 A 
BRANCH  27  30
ATOM     30  O   UNL     1      86.649  56.556  44.550  1.00  0.00    -0.507 OA
ATOM     31  H   UNL     1      86.175  57.400  44.481  1.00  0.00     0.293 HD
ENDBRANCH  27  30
BRANCH  28  32
ATOM     32  O   UNL     1      83.952  55.644  48.328  1.00  0.00    -0.508 OA
ATOM     33  H   UNL     1      84.399  56.459  48.611  1.00  0.00     0.293 HD
ENDBRANCH  28  32
ENDBRANCH   4  19
TORSDOF 8
ENDMDL
MODEL 2
REMARK VINA RESULT:    -9.435      4.016      5.374
REMARK INTER + INTRA:         -14.352
REMARK INTER:                 -13.216
REMARK INTRA:                  -1.136
REMARK UNBOUND:                -1.056
REMARK SMILES C=C(C)/C=C/c1cc([C@@H]2CC(=O)c3c(O)cc(O)cc3O2)cc(CC=C(C)C)c1OC
REMARK SMILES IDX 29 1 23 2 22 3 8 4 7 5 6 6 30 7 31 8 24 9 25 10 26 11 27 12
REMARK SMILES IDX 28 13 5 14 4 15 2 16 1 17 3 18 9 19 10 20 21 21 11 22 20 23
REMARK SMILES IDX 12 24 13 25 19 26 14 27 17 28 16 29 15 30 18 32
REMARK H PARENT 15 31 18 33
ROOT
ATOM      1  C   UNL     1      88.010  51.842  40.798  1.00  0.00     0.129 A 
ATOM      2  C   UNL     1      88.850  51.221  41.738  1.00  0.00    -0.001 A 
ATOM      3  C   UNL     1      88.534  51.329  43.103  1.00  0.00     0.015 A 
ATOM      4  C   UNL     1      87.404  52.039  43.537  1.00  0.00    -0.006 A 
ATOM      5  C   UNL     1      86.600  52.674  42.579  1.00  0.00     0.019 A 
ATOM      6  C   UNL     1      86.899  52.603  41.210  1.00  0.00     0.017 A 
ENDROOT
BRANCH   1   7
ATOM      7  O   UNL     1      88.342  51.742  39.467  1.00  0.00    -0.496 OA
ATOM      8  C   UNL     1      89.136  52.861  39.065  1.00  0.00     0.278 C 
ENDBRANCH   1   7
BRANCH   2   9
ATOM      9  C   UNL     1      90.108  50.484  41.336  1.00  0.00     0.066 C 
BRANCH   9  10
ATOM     10  C   UNL     1      89.957  48.993  41.474  1.00  0.00    -0.023 C 
ATOM     11  C   UNL     1      90.482  48.180  42.412  1.00  0.00    -0.080 C 
ATOM     12  C   UNL     1      91.382  48.613  43.535  1.00  0.00     0.039 C 
ATOM     13  C   UNL     1      90.195  46.700  42.387  1.00  0.00     0.039 C 
ENDBRANCH   9  10
ENDBRANCH   2   9
BRANCH   6  14
ATOM     14  C   UNL     1      86.009  53.333  40.291  1.00  0.00     0.012 C 
ATOM     15  C   UNL     1      84.882  53.942  40.695  1.00  0.00     0.003 C 
BRANCH  15  16
ATOM     16  C   UNL     1      83.949  54.668  39.844  1.00  0.00    -0.058 C 
ATOM     17  C   UNL     1      82.662  54.787  40.214  1.00  0.00     0.012 C 
ATOM     18  C   UNL     1      84.436  55.281  38.559  1.00  0.00     0.043 C 
ENDBRANCH  15  16
ENDBRANCH   6  14
BRANCH   4  19
ATOM     19  C   UNL     1      87.080  52.176  45.014  1.00  0.00     0.211 C 
ATOM     20  C   UNL     1      86.733  50.826  45.616  1.00  0.00     0.131 C 
ATOM     21  O   UNL     1      85.980  53.088  45.154  1.00  0.00    -0.484 OA
ATOM     22  C   UNL     1      86.491  51.031  47.086  1.00  0.00     0.174 C 
ATOM     23  C   UNL     1      85.560  53.233  46.451  1.00  0.00     0.138 A 
ATOM     24  O   UNL     1      86.830  50.178  47.899  1.00  0.00    -0.294 OA
ATOM     25  C   UNL     1      85.788  52.287  47.462  1.00  0.00     0.102 A 
ATOM     26  C   UNL     1      84.848  54.404  46.720  1.00  0.00     0.093 A 
ATOM     27  C   UNL     1      85.319  52.548  48.757  1.00  0.00     0.133 A 
ATOM     28  C   UNL     1      84.390  54.643  48.008  1.00  0.00     0.123 A 
ATOM     29  C   UNL     1      84.624  53.729  49.030  1.00  0.00     0.093 A 
BRANCH  27  30
ATOM     30  O   UNL     1      85.518  51.656  49.770  1.00  0.00    -0.507 OA
ATOM     31  H   UNL     1      86.094  52.040  50.451  1.00  0.00     0.293 HD
ENDBRANCH  27  30
BRANCH  28  32
ATOM     32  O   UNL     1      83.699  55.776  48.320  1.00  0.00    -0.508 OA
ATOM     33  H   UNL     1      82.758  55.640  48.116  1.00  0.00     0.293 HD
ENDBRANCH  28  32
ENDBRANCH   4  19
TORSDOF 8
ENDMDL
MODEL 3
REMARK VINA RESULT:    -9.371      0.374      5.491
REMARK INTER + INTRA:         -14.262
REMARK INTER:                 -13.278
REMARK INTRA:                  -0.985
REMARK UNBOUND:                -1.056
REMARK SMILES C=C(C)/C=C/c1cc([C@@H]2CC(=O)c3c(O)cc(O)cc3O2)cc(CC=C(C)C)c1OC
REMARK SMILES IDX 29 1 23 2 22 3 8 4 7 5 6 6 30 7 31 8 24 9 25 10 26 11 27 12
REMARK SMILES IDX 28 13 5 14 4 15 2 16 1 17 3 18 9 19 10 20 21 21 11 22 20 23
REMARK SMILES IDX 12 24 13 25 19 26 14 27 17 28 16 29 15 30 18 32
REMARK H PARENT 15 31 18 33
ROOT
ATOM      1  C   UNL     1      84.909  47.724  43.159  1.00  0.00     0.129 A 
ATOM      2  C   UNL     1      83.714  48.382  43.499  1.00  0.00    -0.001 A 
ATOM      3  C   UNL     1      83.749  49.766  43.741  1.00  0.00     0.015 A 
ATOM      4  C   UNL     1      84.945  50.494  43.647  1.00  0.00    -0.006 A 
ATOM      5  C   UNL     1      86.128  49.807  43.334  1.00  0.00     0.019 A 
ATOM      6  C   UNL     1      86.131  48.422  43.108  1.00  0.00     0.017 A 
ENDROOT
BRANCH   1   7
ATOM      7  O   UNL     1      84.862  46.367  42.942  1.00  0.00    -0.496 OA
ATOM      8  C   UNL     1      85.194  45.660  44.139  1.00  0.00     0.278 C 
ENDBRANCH   1   7
BRANCH   2   9
ATOM      9  C   UNL     1      82.404  47.644  43.665  1.00  0.00     0.066 C 
BRANCH   9  10
ATOM     10  C   UNL     1      81.284  48.566  44.065  1.00  0.00    -0.023 C 
ATOM     11  C   UNL     1      79.972  48.287  44.190  1.00  0.00    -0.080 C 
ATOM     12  C   UNL     1      79.335  46.953  43.918  1.00  0.00     0.039 C 
ATOM     13  C   UNL     1      79.002  49.357  44.623  1.00  0.00     0.039 C 
ENDBRANCH   9  10
ENDBRANCH   2   9
BRANCH   6  14
ATOM     14  C   UNL     1      87.432  47.794  42.819  1.00  0.00     0.012 C 
ATOM     15  C   UNL     1      88.549  48.502  42.582  1.00  0.00     0.003 C 
BRANCH  15  16
ATOM     16  C   UNL     1      89.862  47.953  42.277  1.00  0.00    -0.058 C 
ATOM     17  C   UNL     1      90.871  48.777  41.948  1.00  0.00     0.012 C 
ATOM     18  C   UNL     1      90.078  46.464  42.337  1.00  0.00     0.043 C 
ENDBRANCH  15  16
ENDBRANCH   6  14
BRANCH   4  19
ATOM     19  C   UNL     1      84.983  51.984  43.933  1.00  0.00     0.211 C 
ATOM     20  C   UNL     1      86.280  52.596  43.433  1.00  0.00     0.131 C 
ATOM     21  O   UNL     1      84.849  52.177  45.350  1.00  0.00    -0.484 OA
ATOM     22  C   UNL     1      86.215  54.076  43.690  1.00  0.00     0.174 C 
ATOM     23  C   UNL     1      84.938  53.493  45.726  1.00  0.00     0.138 A 
ATOM     24  O   UNL     1      86.709  54.869  42.897  1.00  0.00    -0.294 OA
ATOM     25  C   UNL     1      85.567  54.488  44.964  1.00  0.00     0.102 A 
ATOM     26  C   UNL     1      84.367  53.798  46.964  1.00  0.00     0.093 A 
ATOM     27  C   UNL     1      85.588  55.804  45.447  1.00  0.00     0.133 A 
ATOM     28  C   UNL     1      84.400  55.107  47.426  1.00  0.00     0.123 A 
ATOM     29  C   UNL     1      85.001  56.113  46.677  1.00  0.00     0.093 A 
BRANCH  27  30
ATOM     30  O   UNL     1      86.190  56.804  44.739  1.00  0.00    -0.507 OA
ATOM     31  H   UNL     1      86.534  57.484  45.340  1.00  0.00     0.293 HD
ENDBRANCH  27  30
BRANCH  28  32
ATOM     32  O   UNL     1      83.849  55.454  48.623  1.00  0.00    -0.508 OA
ATOM     33  H   UNL     1      84.087  56.374  48.827  1.00  0.00     0.293 HD
ENDBRANCH  28  32
ENDBRANCH   4  19
TORSDOF 8
ENDMDL
MODEL 4
REMARK VINA RESULT:    -9.317      2.053      3.780
REMARK INTER + INTRA:         -14.186
REMARK INTER:                 -13.041
REMARK INTRA:                  -1.145
REMARK UNBOUND:                -1.056
REMARK SMILES C=C(C)/C=C/c1cc([C@@H]2CC(=O)c3c(O)cc(O)cc3O2)cc(CC=C(C)C)c1OC
REMARK SMILES IDX 29 1 23 2 22 3 8 4 7 5 6 6 30 7 31 8 24 9 25 10 26 11 27 12
REMARK SMILES IDX 28 13 5 14 4 15 2 16 1 17 3 18 9 19 10 20 21 21 11 22 20 23
REMARK SMILES IDX 12 24 13 25 19 26 14 27 17 28 16 29 15 30 18 32
REMARK H PARENT 15 31 18 33
ROOT
ATOM      1  C   UNL     1      87.609  49.018  42.474  1.00  0.00     0.129 A 
ATOM      2  C   UNL     1      88.448  50.142  42.382  1.00  0.00    -0.001 A 
ATOM      3  C   UNL     1      88.146  51.276  43.154  1.00  0.00     0.015 A 
ATOM      4  C   UNL     1      87.033  51.305  44.007  1.00  0.00    -0.006 A 
ATOM      5  C   UNL     1      86.195  50.180  44.057  1.00  0.00     0.019 A 
ATOM      6  C   UNL     1      86.457  49.039  43.283  1.00  0.00     0.017 A 
ENDROOT
BRANCH   1   7
ATOM      7  O   UNL     1      87.907  47.921  41.699  1.00  0.00    -0.496 OA
ATOM      8  C   UNL     1      88.844  47.076  42.371  1.00  0.00     0.278 C 
ENDBRANCH   1   7
BRANCH   2   9
ATOM      9  C   UNL     1      89.634  50.190  41.444  1.00  0.00     0.066 C 
BRANCH   9  10
ATOM     10  C   UNL     1      90.124  51.597  41.228  1.00  0.00    -0.023 C 
ATOM     11  C   UNL     1      89.683  52.513  40.343  1.00  0.00    -0.080 C 
ATOM     12  C   UNL     1      88.588  52.294  39.337  1.00  0.00     0.039 C 
ATOM     13  C   UNL     1      90.301  53.887  40.294  1.00  0.00     0.039 C 
ENDBRANCH   9  10
ENDBRANCH   2   9
BRANCH   6  14
ATOM     14  C   UNL     1      85.496  47.926  43.385  1.00  0.00     0.012 C 
ATOM     15  C   UNL     1      84.166  48.110  43.420  1.00  0.00     0.003 C 
BRANCH  15  16
ATOM     16  C   UNL     1      83.160  47.063  43.533  1.00  0.00    -0.058 C 
ATOM     17  C   UNL     1      81.860  47.393  43.619  1.00  0.00     0.012 C 
ATOM     18  C   UNL     1      83.587  45.619  43.550  1.00  0.00     0.043 C 
ENDBRANCH  15  16
ENDBRANCH   6  14
BRANCH   4  19
ATOM     19  C   UNL     1      86.695  52.541  44.820  1.00  0.00     0.211 C 
ATOM     20  C   UNL     1      85.453  52.310  45.662  1.00  0.00     0.131 C 
ATOM     21  O   UNL     1      86.494  53.638  43.916  1.00  0.00    -0.484 OA
ATOM     22  C   UNL     1      85.224  53.547  46.485  1.00  0.00     0.174 C 
ATOM     23  C   UNL     1      86.117  54.796  44.546  1.00  0.00     0.138 A 
ATOM     24  O   UNL     1      84.787  53.464  47.628  1.00  0.00    -0.294 OA
ATOM     25  C   UNL     1      85.511  54.841  45.811  1.00  0.00     0.102 A 
ATOM     26  C   UNL     1      86.356  55.970  43.828  1.00  0.00     0.093 A 
ATOM     27  C   UNL     1      85.177  56.087  46.361  1.00  0.00     0.133 A 
ATOM     28  C   UNL     1      86.015  57.193  44.389  1.00  0.00     0.123 A 
ATOM     29  C   UNL     1      85.434  57.263  45.651  1.00  0.00     0.093 A 
BRANCH  27  30
ATOM     30  O   UNL     1      84.586  56.178  47.587  1.00  0.00    -0.507 OA
ATOM     31  H   UNL     1      83.633  56.335  47.493  1.00  0.00     0.293 HD
ENDBRANCH  27  30
BRANCH  28  32
ATOM     32  O   UNL     1      86.237  58.366  43.731  1.00  0.00    -0.508 OA
ATOM     33  H   UNL     1      85.711  59.069  44.147  1.00  0.00     0.293 HD
ENDBRANCH  28  32
ENDBRANCH   4  19
TORSDOF 8
ENDMDL
MODEL 5
REMARK VINA RESULT:    -9.290      2.073      3.456
REMARK INTER + INTRA:         -14.148
REMARK INTER:                 -13.093
REMARK INTRA:                  -1.055
REMARK UNBOUND:                -1.056
REMARK SMILES C=C(C)/C=C/c1cc([C@@H]2CC(=O)c3c(O)cc(O)cc3O2)cc(CC=C(C)C)c1OC
REMARK SMILES IDX 29 1 23 2 22 3 8 4 7 5 6 6 30 7 31 8 24 9 25 10 26 11 27 12
REMARK SMILES IDX 28 13 5 14 4 15 2 16 1 17 3 18 9 19 10 20 21 21 11 22 20 23
REMARK SMILES IDX 12 24 13 25 19 26 14 27 17 28 16 29 15 30 18 32
REMARK H PARENT 15 31 18 33
ROOT
ATOM      1  C   UNL     1      87.929  49.005  43.044  1.00  0.00     0.129 A 
ATOM      2  C   UNL     1      88.520  50.213  42.634  1.00  0.00    -0.001 A 
ATOM      3  C   UNL     1      87.853  51.420  42.908  1.00  0.00     0.015 A 
ATOM      4  C   UNL     1      86.621  51.438  43.580  1.00  0.00    -0.006 A 
ATOM      5  C   UNL     1      86.040  50.215  43.952  1.00  0.00     0.019 A 
ATOM      6  C   UNL     1      86.670  48.992  43.674  1.00  0.00     0.017 A 
ENDROOT
BRANCH   1   7
ATOM      7  O   UNL     1      88.585  47.832  42.754  1.00  0.00    -0.496 OA
ATOM      8  C   UNL     1      88.183  47.340  41.473  1.00  0.00     0.278 C 
ENDBRANCH   1   7
BRANCH   2   9
ATOM      9  C   UNL     1      89.821  50.256  41.863  1.00  0.00     0.066 C 
BRANCH   9  10
ATOM     10  C   UNL     1      90.226  51.664  41.521  1.00  0.00    -0.023 C 
ATOM     11  C   UNL     1      89.893  52.393  40.437  1.00  0.00    -0.080 C 
ATOM     12  C   UNL     1      89.038  51.917  39.296  1.00  0.00     0.039 C 
ATOM     13  C   UNL     1      90.393  53.807  40.284  1.00  0.00     0.039 C 
ENDBRANCH   9  10
ENDBRANCH   2   9
BRANCH   6  14
ATOM     14  C   UNL     1      85.958  47.767  44.078  1.00  0.00     0.012 C 
ATOM     15  C   UNL     1      84.928  47.257  43.384  1.00  0.00     0.003 C 
BRANCH  15  16
ATOM     16  C   UNL     1      84.171  46.062  43.728  1.00  0.00    -0.058 C 
ATOM     17  C   UNL     1      82.832  46.123  43.821  1.00  0.00     0.012 C 
ATOM     18  C   UNL     1      84.897  44.767  43.975  1.00  0.00     0.043 C 
ENDBRANCH  15  16
ENDBRANCH   6  14
BRANCH   4  19
ATOM     19  C   UNL     1      85.892  52.740  43.852  1.00  0.00     0.211 C 
ATOM     20  C   UNL     1      86.556  53.893  43.119  1.00  0.00     0.131 C 
ATOM     21  O   UNL     1      85.896  52.975  45.268  1.00  0.00    -0.484 OA
ATOM     22  C   UNL     1      85.742  55.129  43.382  1.00  0.00     0.174 C 
ATOM     23  C   UNL     1      85.316  54.167  45.620  1.00  0.00     0.138 A 
ATOM     24  O   UNL     1      85.599  55.979  42.510  1.00  0.00    -0.294 OA
ATOM     25  C   UNL     1      85.181  55.262  44.753  1.00  0.00     0.102 A 
ATOM     26  C   UNL     1      84.872  54.246  46.942  1.00  0.00     0.093 A 
ATOM     27  C   UNL     1      84.562  56.429  45.222  1.00  0.00     0.133 A 
ATOM     28  C   UNL     1      84.263  55.412  47.388  1.00  0.00     0.123 A 
ATOM     29  C   UNL     1      84.099  56.501  46.539  1.00  0.00     0.093 A 
BRANCH  27  30
ATOM     30  O   UNL     1      84.410  57.518  44.414  1.00  0.00    -0.507 OA
ATOM     31  H   UNL     1      83.522  57.896  44.520  1.00  0.00     0.293 HD
ENDBRANCH  27  30
BRANCH  28  32
ATOM     32  O   UNL     1      83.806  55.532  48.666  1.00  0.00    -0.508 OA
ATOM     33  H   UNL     1      83.031  54.957  48.781  1.00  0.00     0.293 HD
ENDBRANCH  28  32
ENDBRANCH   4  19
TORSDOF 8
ENDMDL
MODEL 6
REMARK VINA RESULT:    -9.047      3.141      7.865
REMARK INTER + INTRA:         -13.806
REMARK INTER:                 -12.664
REMARK INTRA:                  -1.142
REMARK UNBOUND:                -1.056
REMARK SMILES C=C(C)/C=C/c1cc([C@@H]2CC(=O)c3c(O)cc(O)cc3O2)cc(CC=C(C)C)c1OC
REMARK SMILES IDX 29 1 23 2 22 3 8 4 7 5 6 6 30 7 31 8 24 9 25 10 26 11 27 12
REMARK SMILES IDX 28 13 5 14 4 15 2 16 1 17 3 18 9 19 10 20 21 21 11 22 20 23
REMARK SMILES IDX 12 24 13 25 19 26 14 27 17 28 16 29 15 30 18 32
REMARK H PARENT 15 31 18 33
ROOT
ATOM      1  C   UNL     1      85.460  54.585  44.796  1.00  0.00     0.129 A 
ATOM      2  C   UNL     1      86.249  53.951  45.771  1.00  0.00    -0.001 A 
ATOM      3  C   UNL     1      86.956  52.789  45.417  1.00  0.00     0.015 A 
ATOM      4  C   UNL     1      86.889  52.258  44.120  1.00  0.00    -0.006 A 
ATOM      5  C   UNL     1      86.070  52.896  43.175  1.00  0.00     0.019 A 
ATOM      6  C   UNL     1      85.334  54.045  43.502  1.00  0.00     0.017 A 
ENDROOT
BRANCH   1   7
ATOM      7  O   UNL     1      84.760  55.711  45.162  1.00  0.00    -0.496 OA
ATOM      8  C   UNL     1      85.544  56.883  44.928  1.00  0.00     0.278 C 
ENDBRANCH   1   7
BRANCH   2   9
ATOM      9  C   UNL     1      86.323  54.445  47.199  1.00  0.00     0.066 C 
BRANCH   9  10
ATOM     10  C   UNL     1      85.161  53.960  48.024  1.00  0.00    -0.023 C 
ATOM     11  C   UNL     1      85.061  52.827  48.747  1.00  0.00    -0.080 C 
ATOM     12  C   UNL     1      86.121  51.767  48.856  1.00  0.00     0.039 C 
ATOM     13  C   UNL     1      83.806  52.527  49.526  1.00  0.00     0.039 C 
ENDBRANCH   9  10
ENDBRANCH   2   9
BRANCH   6  14
ATOM     14  C   UNL     1      84.480  54.616  42.445  1.00  0.00     0.012 C 
ATOM     15  C   UNL     1      83.468  53.939  41.878  1.00  0.00     0.003 C 
BRANCH  15  16
ATOM     16  C   UNL     1      82.594  54.432  40.823  1.00  0.00    -0.058 C 
ATOM     17  C   UNL     1      81.262  54.291  40.940  1.00  0.00     0.012 C 
ATOM     18  C   UNL     1      83.190  55.098  39.612  1.00  0.00     0.043 C 
ENDBRANCH  15  16
ENDBRANCH   6  14
BRANCH   4  19
ATOM     19  C   UNL     1      87.633  50.990  43.748  1.00  0.00     0.211 C 
ATOM     20  C   UNL     1      88.615  51.251  42.620  1.00  0.00     0.131 C 
ATOM     21  O   UNL     1      86.672  49.997  43.360  1.00  0.00    -0.484 OA
ATOM     22  C   UNL     1      89.358  49.971  42.356  1.00  0.00     0.174 C 
ATOM     23  C   UNL     1      87.246  48.824  42.939  1.00  0.00     0.138 A 
ATOM     24  O   UNL     1      90.543  49.991  42.041  1.00  0.00    -0.294 OA
ATOM     25  C   UNL     1      88.559  48.721  42.455  1.00  0.00     0.102 A 
ATOM     26  C   UNL     1      86.417  47.701  42.997  1.00  0.00     0.093 A 
ATOM     27  C   UNL     1      89.041  47.465  42.061  1.00  0.00     0.133 A 
ATOM     28  C   UNL     1      86.914  46.467  42.599  1.00  0.00     0.123 A 
ATOM     29  C   UNL     1      88.219  46.338  42.137  1.00  0.00     0.093 A 
BRANCH  27  30
ATOM     30  O   UNL     1      90.312  47.318  41.585  1.00  0.00    -0.507 OA
ATOM     31  H   UNL     1      90.295  47.081  40.644  1.00  0.00     0.293 HD
ENDBRANCH  27  30
BRANCH  28  32
ATOM     32  O   UNL     1      86.146  45.342  42.647  1.00  0.00    -0.508 OA
ATOM     33  H   UNL     1      85.380  45.504  43.222  1.00  0.00     0.293 HD
ENDBRANCH  28  32
ENDBRANCH   4  19
TORSDOF 8
ENDMDL
MODEL 7
REMARK VINA RESULT:    -8.986      2.474      6.988
REMARK INTER + INTRA:         -13.720
REMARK INTER:                 -12.591
REMARK INTRA:                  -1.129
REMARK UNBOUND:                -1.056
REMARK SMILES C=C(C)/C=C/c1cc([C@@H]2CC(=O)c3c(O)cc(O)cc3O2)cc(CC=C(C)C)c1OC
REMARK SMILES IDX 29 1 23 2 22 3 8 4 7 5 6 6 30 7 31 8 24 9 25 10 26 11 27 12
REMARK SMILES IDX 28 13 5 14 4 15 2 16 1 17 3 18 9 19 10 20 21 21 11 22 20 23
REMARK SMILES IDX 12 24 13 25 19 26 14 27 17 28 16 29 15 30 18 32
REMARK H PARENT 15 31 18 33
ROOT
ATOM      1  C   UNL     1      88.276  51.906  42.276  1.00  0.00     0.129 A 
ATOM      2  C   UNL     1      88.327  50.518  42.056  1.00  0.00    -0.001 A 
ATOM      3  C   UNL     1      87.246  49.726  42.481  1.00  0.00     0.015 A 
ATOM      4  C   UNL     1      86.130  50.292  43.115  1.00  0.00    -0.006 A 
ATOM      5  C   UNL     1      86.119  51.676  43.348  1.00  0.00     0.019 A 
ATOM      6  C   UNL     1      87.191  52.492  42.955  1.00  0.00     0.017 A 
ENDROOT
BRANCH   1   7
ATOM      7  O   UNL     1      89.348  52.666  41.869  1.00  0.00    -0.496 OA
ATOM      8  C   UNL     1      89.242  52.972  40.477  1.00  0.00     0.278 C 
ENDBRANCH   1   7
BRANCH   2   9
ATOM      9  C   UNL     1      89.523  49.843  41.423  1.00  0.00     0.066 C 
BRANCH   9  10
ATOM     10  C   UNL     1      89.486  48.349  41.600  1.00  0.00    -0.023 C 
ATOM     11  C   UNL     1      90.186  47.589  42.466  1.00  0.00    -0.080 C 
ATOM     12  C   UNL     1      91.203  48.099  43.448  1.00  0.00     0.039 C 
ATOM     13  C   UNL     1      89.992  46.095  42.499  1.00  0.00     0.039 C 
ENDBRANCH   9  10
ENDBRANCH   2   9
BRANCH   6  14
ATOM     14  C   UNL     1      87.093  53.927  43.277  1.00  0.00     0.012 C 
ATOM     15  C   UNL     1      85.935  54.606  43.246  1.00  0.00     0.003 C 
BRANCH  15  16
ATOM     16  C   UNL     1      85.765  56.022  43.538  1.00  0.00    -0.058 C 
ATOM     17  C   UNL     1      86.713  56.680  44.225  1.00  0.00     0.012 C 
ATOM     18  C   UNL     1      84.527  56.736  43.064  1.00  0.00     0.043 C 
ENDBRANCH  15  16
ENDBRANCH   6  14
BRANCH   4  19
ATOM     19  C   UNL     1      84.977  49.431  43.596  1.00  0.00     0.211 C 
ATOM     20  C   UNL     1      85.168  47.987  43.167  1.00  0.00     0.131 C 
ATOM     21  O   UNL     1      83.758  49.960  43.053  1.00  0.00    -0.484 OA
ATOM     22  C   UNL     1      84.028  47.188  43.736  1.00  0.00     0.174 C 
ATOM     23  C   UNL     1      82.654  49.212  43.374  1.00  0.00     0.138 A 
ATOM     24  O   UNL     1      84.205  46.040  44.128  1.00  0.00    -0.294 OA
ATOM     25  C   UNL     1      82.700  47.859  43.739  1.00  0.00     0.102 A 
ATOM     26  C   UNL     1      81.433  49.887  43.292  1.00  0.00     0.093 A 
ATOM     27  C   UNL     1      81.505  47.198  44.056  1.00  0.00     0.133 A 
ATOM     28  C   UNL     1      80.260  49.214  43.607  1.00  0.00     0.123 A 
ATOM     29  C   UNL     1      80.285  47.878  43.993  1.00  0.00     0.093 A 
BRANCH  27  30
ATOM     30  O   UNL     1      81.503  45.882  44.416  1.00  0.00    -0.507 OA
ATOM     31  H   UNL     1      80.950  45.748  45.203  1.00  0.00     0.293 HD
ENDBRANCH  27  30
BRANCH  28  32
ATOM     32  O   UNL     1      79.047  49.832  43.551  1.00  0.00    -0.508 OA
ATOM     33  H   UNL     1      78.563  49.512  42.771  1.00  0.00     0.293 HD
ENDBRANCH  28  32
ENDBRANCH   4  19
TORSDOF 8
ENDMDL
MODEL 8
REMARK VINA RESULT:    -8.955      4.060      6.714
REMARK INTER + INTRA:         -13.676
REMARK INTER:                 -12.565
REMARK INTRA:                  -1.111
REMARK UNBOUND:                -1.056
REMARK SMILES C=C(C)/C=C/c1cc([C@@H]2CC(=O)c3c(O)cc(O)cc3O2)cc(CC=C(C)C)c1OC
REMARK SMILES IDX 29 1 23 2 22 3 8 4 7 5 6 6 30 7 31 8 24 9 25 10 26 11 27 12
REMARK SMILES IDX 28 13 5 14 4 15 2 16 1 17 3 18 9 19 10 20 21 21 11 22 20 23
REMARK SMILES IDX 12 24 13 25 19 26 14 27 17 28 16 29 15 30 18 32
REMARK H PARENT 15 31 18 33
ROOT
ATOM      1  C   UNL     1      87.990  51.850  40.954  1.00  0.00     0.129 A 
ATOM      2  C   UNL     1      86.936  52.778  41.027  1.00  0.00    -0.001 A 
ATOM      3  C   UNL     1      86.492  53.197  42.293  1.00  0.00     0.015 A 
ATOM      4  C   UNL     1      87.076  52.710  43.472  1.00  0.00    -0.006 A 
ATOM      5  C   UNL     1      88.106  51.761  43.369  1.00  0.00     0.019 A 
ATOM      6  C   UNL     1      88.559  51.307  42.121  1.00  0.00     0.017 A 
ENDROOT
BRANCH   1   7
ATOM      7  O   UNL     1      88.403  51.437  39.709  1.00  0.00    -0.496 OA
ATOM      8  C   UNL     1      89.553  52.177  39.294  1.00  0.00     0.278 C 
ENDBRANCH   1   7
BRANCH   2   9
ATOM      9  C   UNL     1      86.233  53.302  39.795  1.00  0.00     0.066 C 
BRANCH   9  10
ATOM     10  C   UNL     1      84.817  53.719  40.089  1.00  0.00    -0.023 C 
ATOM     11  C   UNL     1      84.116  54.741  39.559  1.00  0.00    -0.080 C 
ATOM     12  C   UNL     1      84.639  55.725  38.550  1.00  0.00     0.039 C 
ATOM     13  C   UNL     1      82.689  54.985  39.977  1.00  0.00     0.039 C 
ENDBRANCH   9  10
ENDBRANCH   2   9
BRANCH   6  14
ATOM     14  C   UNL     1      89.622  50.286  42.127  1.00  0.00     0.012 C 
ATOM     15  C   UNL     1      89.570  49.181  42.888  1.00  0.00     0.003 C 
BRANCH  15  16
ATOM     16  C   UNL     1      90.585  48.139  42.955  1.00  0.00    -0.058 C 
ATOM     17  C   UNL     1      91.775  48.402  43.522  1.00  0.00     0.012 C 
ATOM     18  C   UNL     1      90.290  46.775  42.391  1.00  0.00     0.043 C 
ENDBRANCH  15  16
ENDBRANCH   6  14
BRANCH   4  19
ATOM     19  C   UNL     1      86.576  53.145  44.837  1.00  0.00     0.211 C 
ATOM     20  C   UNL     1      86.032  51.959  45.614  1.00  0.00     0.131 C 
ATOM     21  O   UNL     1      85.555  54.137  44.650  1.00  0.00    -0.484 OA
ATOM     22  C   UNL     1      85.621  52.456  46.973  1.00  0.00     0.174 C 
ATOM     23  C   UNL     1      84.985  54.553  45.826  1.00  0.00     0.138 A 
ATOM     24  O   UNL     1      85.772  51.752  47.966  1.00  0.00    -0.294 OA
ATOM     25  C   UNL     1      84.992  53.803  47.012  1.00  0.00     0.102 A 
ATOM     26  C   UNL     1      84.353  55.798  45.774  1.00  0.00     0.093 A 
ATOM     27  C   UNL     1      84.384  54.336  48.157  1.00  0.00     0.133 A 
ATOM     28  C   UNL     1      83.755  56.306  46.919  1.00  0.00     0.123 A 
ATOM     29  C   UNL     1      83.769  55.590  48.111  1.00  0.00     0.093 A 
BRANCH  27  30
ATOM     30  O   UNL     1      84.367  53.641  49.332  1.00  0.00    -0.507 OA
ATOM     31  H   UNL     1      83.473  53.312  49.518  1.00  0.00     0.293 HD
ENDBRANCH  27  30
BRANCH  28  32
ATOM     32  O   UNL     1      83.135  57.520  46.920  1.00  0.00    -0.508 OA
ATOM     33  H   UNL     1      83.702  58.166  46.465  1.00  0.00     0.293 HD
ENDBRANCH  28  32
ENDBRANCH   4  19
TORSDOF 8
ENDMDL
MODEL 9
REMARK VINA RESULT:    -8.738      2.724      8.073
REMARK INTER + INTRA:         -13.370
REMARK INTER:                 -12.313
REMARK INTRA:                  -1.056
REMARK UNBOUND:                -1.056
REMARK SMILES C=C(C)/C=C/c1cc([C@@H]2CC(=O)c3c(O)cc(O)cc3O2)cc(CC=C(C)C)c1OC
REMARK SMILES IDX 29 1 23 2 22 3 8 4 7 5 6 6 30 7 31 8 24 9 25 10 26 11 27 12
REMARK SMILES IDX 28 13 5 14 4 15 2 16 1 17 3 18 9 19 10 20 21 21 11 22 20 23
REMARK SMILES IDX 12 24 13 25 19 26 14 27 17 28 16 29 15 30 18 32
REMARK H PARENT 15 31 18 33
ROOT
ATOM      1  C   UNL     1      87.103  51.744  42.944  1.00  0.00     0.129 A 
ATOM      2  C   UNL     1      85.779  52.203  42.827  1.00  0.00    -0.001 A 
ATOM      3  C   UNL     1      84.730  51.332  43.164  1.00  0.00     0.015 A 
ATOM      4  C   UNL     1      84.979  50.025  43.611  1.00  0.00    -0.006 A 
ATOM      5  C   UNL     1      86.309  49.584  43.690  1.00  0.00     0.019 A 
ATOM      6  C   UNL     1      87.379  50.422  43.342  1.00  0.00     0.017 A 
ENDROOT
BRANCH   1   7
ATOM      7  O   UNL     1      88.120  52.602  42.594  1.00  0.00    -0.496 OA
ATOM      8  C   UNL     1      88.510  52.385  41.237  1.00  0.00     0.278 C 
ENDBRANCH   1   7
BRANCH   2   9
ATOM      9  C   UNL     1      85.446  53.582  42.304  1.00  0.00     0.066 C 
BRANCH   9  10
ATOM     10  C   UNL     1      83.971  53.747  42.051  1.00  0.00    -0.023 C 
ATOM     11  C   UNL     1      83.360  54.371  41.024  1.00  0.00    -0.080 C 
ATOM     12  C   UNL     1      84.057  55.079  39.897  1.00  0.00     0.039 C 
ATOM     13  C   UNL     1      81.856  54.413  40.943  1.00  0.00     0.039 C 
ENDBRANCH   9  10
ENDBRANCH   2   9
BRANCH   6  14
ATOM     14  C   UNL     1      88.734  49.849  43.429  1.00  0.00     0.012 C 
ATOM     15  C   UNL     1      89.092  48.721  42.794  1.00  0.00     0.003 C 
BRANCH  15  16
ATOM     16  C   UNL     1      90.404  48.090  42.845  1.00  0.00    -0.058 C 
ATOM     17  C   UNL     1      91.473  48.804  43.238  1.00  0.00     0.012 C 
ATOM     18  C   UNL     1      90.549  46.643  42.459  1.00  0.00     0.043 C 
ENDBRANCH  15  16
ENDBRANCH   6  14
BRANCH   4  19
ATOM     19  C   UNL     1      83.842  49.079  43.950  1.00  0.00     0.211 C 
ATOM     20  C   UNL     1      83.930  47.811  43.119  1.00  0.00     0.131 C 
ATOM     21  O   UNL     1      82.600  49.757  43.704  1.00  0.00    -0.484 OA
ATOM     22  C   UNL     1      82.817  46.901  43.557  1.00  0.00     0.174 C 
ATOM     23  C   UNL     1      81.501  48.964  43.916  1.00  0.00     0.138 A 
ATOM     24  O   UNL     1      82.982  45.687  43.594  1.00  0.00    -0.294 OA
ATOM     25  C   UNL     1      81.525  47.562  43.884  1.00  0.00     0.102 A 
ATOM     26  C   UNL     1      80.308  49.651  44.152  1.00  0.00     0.093 A 
ATOM     27  C   UNL     1      80.338  46.855  44.126  1.00  0.00     0.133 A 
ATOM     28  C   UNL     1      79.143  48.932  44.387  1.00  0.00     0.123 A 
ATOM     29  C   UNL     1      79.148  47.542  44.381  1.00  0.00     0.093 A 
BRANCH  27  30
ATOM     30  O   UNL     1      80.315  45.491  44.104  1.00  0.00    -0.507 OA
ATOM     31  H   UNL     1      80.152  45.141  44.994  1.00  0.00     0.293 HD
ENDBRANCH  27  30
BRANCH  28  32
ATOM     32  O   UNL     1      77.957  49.558  44.631  1.00  0.00    -0.508 OA
ATOM     33  H   UNL     1      78.080  50.203  45.348  1.00  0.00     0.293 HD
ENDBRANCH  28  32
ENDBRANCH   4  19
TORSDOF 8
ENDMDL
