MODEL 1
REMARK VINA RESULT:    -9.313      0.000      0.000
REMARK INTER + INTRA:         -14.833
REMARK INTER:                 -13.544
REMARK INTRA:                  -1.289
REMARK UNBOUND:                -1.164
REMARK SMILES C=C(C)C(O)Cc1cc([C@@H]2CC(=O)c3c(O)cc(O)cc3O2)cc(CC=C(C)C)c1O
REMARK SMILES IDX 24 1 23 2 9 3 8 4 7 5 30 6 25 7 26 8 27 9 28 10 29 11 31 12
REMARK SMILES IDX 10 14 11 15 22 16 12 17 21 18 13 19 14 20 20 21 15 22 18 23
REMARK SMILES IDX 17 24 16 25 19 27 6 29 4 30 2 31 1 32 3 33 5 34
REMARK H PARENT 31 13 16 26 19 28 5 35
ROOT
ATOM      1  C   UNL     1      88.505  49.525  42.347  1.00  0.00    -0.002 A 
ATOM      2  C   UNL     1      88.232  50.508  43.316  1.00  0.00     0.015 A 
ATOM      3  C   UNL     1      87.134  50.405  44.184  1.00  0.00    -0.006 A 
ATOM      4  C   UNL     1      86.287  49.297  44.063  1.00  0.00     0.015 A 
ATOM      5  C   UNL     1      86.523  48.307  43.096  1.00  0.00    -0.003 A 
ATOM      6  C   UNL     1      87.627  48.437  42.240  1.00  0.00     0.122 A 
ENDROOT
BRANCH   1   7
ATOM      7  C   UNL     1      89.721  49.709  41.468  1.00  0.00     0.066 C 
BRANCH   7   8
ATOM      8  C   UNL     1      90.150  51.150  41.388  1.00  0.00    -0.023 C 
ATOM      9  C   UNL     1      89.734  52.095  40.522  1.00  0.00    -0.080 C 
ATOM     10  C   UNL     1      90.272  53.501  40.607  1.00  0.00     0.039 C 
ATOM     11  C   UNL     1      88.743  51.887  39.410  1.00  0.00     0.039 C 
ENDBRANCH   7   8
ENDBRANCH   1   7
BRANCH   6  12
ATOM     12  O   UNL     1      87.799  47.452  41.305  1.00  0.00    -0.507 OA
ATOM     13  H   UNL     1      87.731  47.836  40.417  1.00  0.00     0.293 HD
ENDBRANCH   6  12
BRANCH   3  14
ATOM     14  C   UNL     1      86.835  51.484  45.209  1.00  0.00     0.211 C 
ATOM     15  C   UNL     1      86.357  50.860  46.513  1.00  0.00     0.131 C 
ATOM     16  O   UNL     1      85.842  52.371  44.668  1.00  0.00    -0.484 OA
ATOM     17  C   UNL     1      86.083  51.969  47.487  1.00  0.00     0.174 C 
ATOM     18  C   UNL     1      85.472  53.358  45.543  1.00  0.00     0.138 A 
ATOM     19  O   UNL     1      86.203  51.839  48.703  1.00  0.00    -0.294 OA
ATOM     20  C   UNL     1      85.583  53.239  46.930  1.00  0.00     0.102 A 
ATOM     21  C   UNL     1      84.936  54.518  44.987  1.00  0.00     0.093 A 
ATOM     22  C   UNL     1      85.188  54.298  47.756  1.00  0.00     0.133 A 
ATOM     23  C   UNL     1      84.545  55.564  45.820  1.00  0.00     0.123 A 
ATOM     24  C   UNL     1      84.671  55.467  47.202  1.00  0.00     0.093 A 
BRANCH  22  25
ATOM     25  O   UNL     1      85.271  54.249  49.122  1.00  0.00    -0.507 OA
ATOM     26  H   UNL     1      84.463  54.670  49.495  1.00  0.00     0.293 HD
ENDBRANCH  22  25
BRANCH  23  27
ATOM     27  O   UNL     1      84.036  56.684  45.232  1.00  0.00    -0.508 OA
ATOM     28  H   UNL     1      83.322  57.035  45.791  1.00  0.00     0.293 HD
ENDBRANCH  23  27
ENDBRANCH   3  14
BRANCH   5  29
ATOM     29  C   UNL     1      85.590  47.114  43.003  1.00  0.00     0.075 C 
BRANCH  29  30
ATOM     30  C   UNL     1      85.900  46.041  44.063  1.00  0.00     0.144 C 
BRANCH  30  31
ATOM     31  C   UNL     1      86.133  44.674  43.435  1.00  0.00    -0.052 C 
ATOM     32  C   UNL     1      87.087  43.815  43.837  1.00  0.00     0.010 C 
ATOM     33  C   UNL     1      85.238  44.334  42.273  1.00  0.00     0.041 C 
ENDBRANCH  30  31
BRANCH  30  34
ATOM     34  O   UNL     1      84.803  45.959  44.983  1.00  0.00    -0.388 OA
ATOM     35  H   UNL     1      84.365  46.827  44.953  1.00  0.00     0.211 HD
ENDBRANCH  30  34
ENDBRANCH  29  30
ENDBRANCH   5  29
TORSDOF 10
ENDMDL
MODEL 2
REMARK VINA RESULT:    -9.312      1.830      5.238
REMARK INTER + INTRA:         -14.832
REMARK INTER:                 -13.561
REMARK INTRA:                  -1.271
REMARK UNBOUND:                -1.164
REMARK SMILES C=C(C)C(O)Cc1cc([C@@H]2CC(=O)c3c(O)cc(O)cc3O2)cc(CC=C(C)C)c1O
REMARK SMILES IDX 24 1 23 2 9 3 8 4 7 5 30 6 25 7 26 8 27 9 28 10 29 11 31 12
REMARK SMILES IDX 10 14 11 15 22 16 12 17 21 18 13 19 14 20 20 21 15 22 18 23
REMARK SMILES IDX 17 24 16 25 19 27 6 29 4 30 2 31 1 32 3 33 5 34
REMARK H PARENT 31 13 16 26 19 28 5 35
ROOT
ATOM      1  C   UNL     1      86.539  49.180  44.152  1.00  0.00    -0.002 A 
ATOM      2  C   UNL     1      86.091  50.388  44.717  1.00  0.00     0.015 A 
ATOM      3  C   UNL     1      86.755  51.602  44.485  1.00  0.00    -0.006 A 
ATOM      4  C   UNL     1      87.899  51.597  43.678  1.00  0.00     0.015 A 
ATOM      5  C   UNL     1      88.380  50.405  43.113  1.00  0.00    -0.003 A 
ATOM      6  C   UNL     1      87.699  49.205  43.364  1.00  0.00     0.122 A 
ENDROOT
BRANCH   1   7
ATOM      7  C   UNL     1      85.751  47.923  44.441  1.00  0.00     0.066 C 
BRANCH   7   8
ATOM      8  C   UNL     1      84.427  47.906  43.724  1.00  0.00    -0.023 C 
ATOM      9  C   UNL     1      83.689  46.837  43.365  1.00  0.00    -0.080 C 
ATOM     10  C   UNL     1      82.369  47.020  42.659  1.00  0.00     0.039 C 
ATOM     11  C   UNL     1      84.064  45.398  43.594  1.00  0.00     0.039 C 
ENDBRANCH   7   8
ENDBRANCH   1   7
BRANCH   6  12
ATOM     12  O   UNL     1      88.221  48.072  42.802  1.00  0.00    -0.507 OA
ATOM     13  H   UNL     1      89.088  47.886  43.197  1.00  0.00     0.293 HD
ENDBRANCH   6  12
BRANCH   3  14
ATOM     14  C   UNL     1      86.278  52.896  45.120  1.00  0.00     0.211 C 
ATOM     15  C   UNL     1      84.911  52.701  45.763  1.00  0.00     0.131 C 
ATOM     16  O   UNL     1      86.230  53.916  44.109  1.00  0.00    -0.484 OA
ATOM     17  C   UNL     1      84.495  54.005  46.377  1.00  0.00     0.174 C 
ATOM     18  C   UNL     1      85.766  55.116  44.580  1.00  0.00     0.138 A 
ATOM     19  O   UNL     1      83.772  54.079  47.369  1.00  0.00    -0.294 OA
ATOM     20  C   UNL     1      84.934  55.236  45.695  1.00  0.00     0.102 A 
ATOM     21  C   UNL     1      86.141  56.254  43.869  1.00  0.00     0.093 A 
ATOM     22  C   UNL     1      84.508  56.501  46.116  1.00  0.00     0.133 A 
ATOM     23  C   UNL     1      85.710  57.507  44.297  1.00  0.00     0.123 A 
ATOM     24  C   UNL     1      84.899  57.642  45.420  1.00  0.00     0.093 A 
BRANCH  22  25
ATOM     25  O   UNL     1      83.695  56.690  47.201  1.00  0.00    -0.507 OA
ATOM     26  H   UNL     1      83.581  55.824  47.655  1.00  0.00     0.293 HD
ENDBRANCH  22  25
BRANCH  23  27
ATOM     27  O   UNL     1      86.110  58.594  43.578  1.00  0.00    -0.508 OA
ATOM     28  H   UNL     1      86.635  59.176  44.154  1.00  0.00     0.293 HD
ENDBRANCH  23  27
ENDBRANCH   3  14
BRANCH   5  29
ATOM     29  C   UNL     1      89.617  50.440  42.234  1.00  0.00     0.075 C 
BRANCH  29  30
ATOM     30  C   UNL     1      89.274  50.617  40.743  1.00  0.00     0.144 C 
BRANCH  30  31
ATOM     31  C   UNL     1      89.373  52.072  40.307  1.00  0.00    -0.052 C 
ATOM     32  C   UNL     1      90.294  52.936  40.774  1.00  0.00     0.010 C 
ATOM     33  C   UNL     1      88.329  52.526  39.322  1.00  0.00     0.041 C 
ENDBRANCH  30  31
BRANCH  30  34
ATOM     34  O   UNL     1      87.941  50.142  40.509  1.00  0.00    -0.388 OA
ATOM     35  H   UNL     1      88.000  49.171  40.516  1.00  0.00     0.211 HD
ENDBRANCH  30  34
ENDBRANCH  29  30
ENDBRANCH   5  29
TORSDOF 10
ENDMDL
MODEL 3
REMARK VINA RESULT:    -9.246      2.921      5.315
REMARK INTER + INTRA:         -14.735
REMARK INTER:                 -13.316
REMARK INTRA:                  -1.419
REMARK UNBOUND:                -1.164
REMARK SMILES C=C(C)C(O)Cc1cc([C@@H]2CC(=O)c3c(O)cc(O)cc3O2)cc(CC=C(C)C)c1O
REMARK SMILES IDX 24 1 23 2 9 3 8 4 7 5 30 6 25 7 26 8 27 9 28 10 29 11 31 12
REMARK SMILES IDX 10 14 11 15 22 16 12 17 21 18 13 19 14 20 20 21 15 22 18 23
REMARK SMILES IDX 17 24 16 25 19 27 6 29 4 30 2 31 1 32 3 33 5 34
REMARK H PARENT 31 13 16 26 19 28 5 35
ROOT
ATOM      1  C   UNL     1      88.465  51.549  41.373  1.00  0.00    -0.002 A 
ATOM      2  C   UNL     1      88.254  51.597  42.763  1.00  0.00     0.015 A 
ATOM      3  C   UNL     1      87.133  52.234  43.318  1.00  0.00    -0.006 A 
ATOM      4  C   UNL     1      86.214  52.845  42.456  1.00  0.00     0.015 A 
ATOM      5  C   UNL     1      86.405  52.827  41.065  1.00  0.00    -0.003 A 
ATOM      6  C   UNL     1      87.536  52.186  40.538  1.00  0.00     0.122 A 
ENDROOT
BRANCH   1   7
ATOM      7  C   UNL     1      89.690  50.825  40.864  1.00  0.00     0.066 C 
BRANCH   7   8
ATOM      8  C   UNL     1      90.487  50.203  41.980  1.00  0.00    -0.023 C 
ATOM      9  C   UNL     1      90.588  48.898  42.303  1.00  0.00    -0.080 C 
ATOM     10  C   UNL     1      91.456  48.461  43.457  1.00  0.00     0.039 C 
ATOM     11  C   UNL     1      89.883  47.767  41.607  1.00  0.00     0.039 C 
ENDBRANCH   7   8
ENDBRANCH   1   7
BRANCH   6  12
ATOM     12  O   UNL     1      87.681  52.215  39.178  1.00  0.00    -0.507 OA
ATOM     13  H   UNL     1      87.411  53.085  38.843  1.00  0.00     0.293 HD
ENDBRANCH   6  12
BRANCH   3  14
ATOM     14  C   UNL     1      86.928  52.302  44.821  1.00  0.00     0.211 C 
ATOM     15  C   UNL     1      86.741  50.904  45.396  1.00  0.00     0.131 C 
ATOM     16  O   UNL     1      85.784  53.128  45.093  1.00  0.00    -0.484 OA
ATOM     17  C   UNL     1      86.549  51.033  46.879  1.00  0.00     0.174 C 
ATOM     18  C   UNL     1      85.490  53.214  46.428  1.00  0.00     0.138 A 
ATOM     19  O   UNL     1      86.891  50.164  47.678  1.00  0.00    -0.294 OA
ATOM     20  C   UNL     1      85.853  52.240  47.361  1.00  0.00     0.102 A 
ATOM     21  C   UNL     1      84.768  54.333  46.839  1.00  0.00     0.093 A 
ATOM     22  C   UNL     1      85.520  52.406  48.710  1.00  0.00     0.133 A 
ATOM     23  C   UNL     1      84.443  54.486  48.184  1.00  0.00     0.123 A 
ATOM     24  C   UNL     1      84.817  53.534  49.127  1.00  0.00     0.093 A 
BRANCH  22  25
ATOM     25  O   UNL     1      85.846  51.492  49.676  1.00  0.00    -0.507 OA
ATOM     26  H   UNL     1      86.590  50.942  49.340  1.00  0.00     0.293 HD
ENDBRANCH  22  25
BRANCH  23  27
ATOM     27  O   UNL     1      83.745  55.601  48.543  1.00  0.00    -0.508 OA
ATOM     28  H   UNL     1      84.301  56.384  48.383  1.00  0.00     0.293 HD
ENDBRANCH  23  27
ENDBRANCH   3  14
BRANCH   5  29
ATOM     29  C   UNL     1      85.382  53.490  40.161  1.00  0.00     0.075 C 
BRANCH  29  30
ATOM     30  C   UNL     1      85.025  54.915  40.623  1.00  0.00     0.144 C 
BRANCH  30  31
ATOM     31  C   UNL     1      83.741  54.942  41.439  1.00  0.00    -0.052 C 
ATOM     32  C   UNL     1      82.625  54.269  41.107  1.00  0.00     0.010 C 
ATOM     33  C   UNL     1      83.769  55.822  42.661  1.00  0.00     0.041 C 
ENDBRANCH  30  31
BRANCH  30  34
ATOM     34  O   UNL     1      84.873  55.756  39.471  1.00  0.00    -0.388 OA
ATOM     35  H   UNL     1      84.247  55.295  38.886  1.00  0.00     0.211 HD
ENDBRANCH  30  34
ENDBRANCH  29  30
ENDBRANCH   5  29
TORSDOF 10
ENDMDL
MODEL 4
REMARK VINA RESULT:    -9.148      2.639      7.493
REMARK INTER + INTRA:         -14.590
REMARK INTER:                 -12.998
REMARK INTRA:                  -1.593
REMARK UNBOUND:                -1.164
REMARK SMILES C=C(C)C(O)Cc1cc([C@@H]2CC(=O)c3c(O)cc(O)cc3O2)cc(CC=C(C)C)c1O
REMARK SMILES IDX 24 1 23 2 9 3 8 4 7 5 30 6 25 7 26 8 27 9 28 10 29 11 31 12
REMARK SMILES IDX 10 14 11 15 22 16 12 17 21 18 13 19 14 20 20 21 15 22 18 23
REMARK SMILES IDX 17 24 16 25 19 27 6 29 4 30 2 31 1 32 3 33 5 34
REMARK H PARENT 31 13 16 26 19 28 5 35
ROOT
ATOM      1  C   UNL     1      86.579  53.118  44.423  1.00  0.00    -0.002 A 
ATOM      2  C   UNL     1      85.997  51.855  44.633  1.00  0.00     0.015 A 
ATOM      3  C   UNL     1      85.775  50.959  43.576  1.00  0.00    -0.006 A 
ATOM      4  C   UNL     1      86.135  51.349  42.280  1.00  0.00     0.015 A 
ATOM      5  C   UNL     1      86.704  52.609  42.036  1.00  0.00    -0.003 A 
ATOM      6  C   UNL     1      86.911  53.486  43.111  1.00  0.00     0.122 A 
ENDROOT
BRANCH   1   7
ATOM      7  C   UNL     1      86.798  54.010  45.623  1.00  0.00     0.066 C 
BRANCH   7   8
ATOM      8  C   UNL     1      85.501  54.434  46.259  1.00  0.00    -0.023 C 
ATOM      9  C   UNL     1      85.009  54.077  47.462  1.00  0.00    -0.080 C 
ATOM     10  C   UNL     1      83.686  54.621  47.940  1.00  0.00     0.039 C 
ATOM     11  C   UNL     1      85.666  53.134  48.432  1.00  0.00     0.039 C 
ENDBRANCH   7   8
ENDBRANCH   1   7
BRANCH   6  12
ATOM     12  O   UNL     1      87.452  54.707  42.813  1.00  0.00    -0.507 OA
ATOM     13  H   UNL     1      88.393  54.599  42.601  1.00  0.00     0.293 HD
ENDBRANCH   6  12
BRANCH   3  14
ATOM     14  C   UNL     1      85.123  49.608  43.810  1.00  0.00     0.211 C 
ATOM     15  C   UNL     1      85.913  48.508  43.114  1.00  0.00     0.131 C 
ATOM     16  O   UNL     1      83.771  49.658  43.324  1.00  0.00    -0.484 OA
ATOM     17  C   UNL     1      85.228  47.200  43.384  1.00  0.00     0.174 C 
ATOM     18  C   UNL     1      83.111  48.465  43.452  1.00  0.00     0.138 A 
ATOM     19  O   UNL     1      85.827  46.129  43.444  1.00  0.00    -0.294 OA
ATOM     20  C   UNL     1      83.759  47.229  43.511  1.00  0.00     0.102 A 
ATOM     21  C   UNL     1      81.719  48.521  43.496  1.00  0.00     0.093 A 
ATOM     22  C   UNL     1      83.011  46.054  43.648  1.00  0.00     0.133 A 
ATOM     23  C   UNL     1      80.987  47.344  43.632  1.00  0.00     0.123 A 
ATOM     24  C   UNL     1      81.621  46.108  43.714  1.00  0.00     0.093 A 
BRANCH  22  25
ATOM     25  O   UNL     1      83.582  44.811  43.714  1.00  0.00    -0.507 OA
ATOM     26  H   UNL     1      83.047  44.259  44.331  1.00  0.00     0.293 HD
ENDBRANCH  22  25
BRANCH  23  27
ATOM     27  O   UNL     1      79.628  47.448  43.682  1.00  0.00    -0.508 OA
ATOM     28  H   UNL     1      79.298  46.901  44.416  1.00  0.00     0.293 HD
ENDBRANCH  23  27
ENDBRANCH   3  14
BRANCH   5  29
ATOM     29  C   UNL     1      87.092  52.993  40.620  1.00  0.00     0.075 C 
BRANCH  29  30
ATOM     30  C   UNL     1      88.160  52.055  40.029  1.00  0.00     0.144 C 
BRANCH  30  31
ATOM     31  C   UNL     1      89.509  52.229  40.711  1.00  0.00    -0.052 C 
ATOM     32  C   UNL     1      90.309  53.296  40.534  1.00  0.00     0.010 C 
ATOM     33  C   UNL     1      89.939  51.090  41.597  1.00  0.00     0.041 C 
ENDBRANCH  30  31
BRANCH  30  34
ATOM     34  O   UNL     1      88.299  52.327  38.627  1.00  0.00    -0.388 OA
ATOM     35  H   UNL     1      88.837  51.601  38.267  1.00  0.00     0.211 HD
ENDBRANCH  30  34
ENDBRANCH  29  30
ENDBRANCH   5  29
TORSDOF 10
ENDMDL
MODEL 5
REMARK VINA RESULT:    -9.147      1.782      2.446
REMARK INTER + INTRA:         -14.589
REMARK INTER:                 -13.144
REMARK INTRA:                  -1.445
REMARK UNBOUND:                -1.164
REMARK SMILES C=C(C)C(O)Cc1cc([C@@H]2CC(=O)c3c(O)cc(O)cc3O2)cc(CC=C(C)C)c1O
REMARK SMILES IDX 24 1 23 2 9 3 8 4 7 5 30 6 25 7 26 8 27 9 28 10 29 11 31 12
REMARK SMILES IDX 10 14 11 15 22 16 12 17 21 18 13 19 14 20 20 21 15 22 18 23
REMARK SMILES IDX 17 24 16 25 19 27 6 29 4 30 2 31 1 32 3 33 5 34
REMARK H PARENT 31 13 16 26 19 28 5 35
ROOT
ATOM      1  C   UNL     1      88.226  50.145  42.907  1.00  0.00    -0.002 A 
ATOM      2  C   UNL     1      87.821  51.327  43.554  1.00  0.00     0.015 A 
ATOM      3  C   UNL     1      86.699  51.361  44.395  1.00  0.00    -0.006 A 
ATOM      4  C   UNL     1      85.962  50.184  44.578  1.00  0.00     0.015 A 
ATOM      5  C   UNL     1      86.332  48.993  43.935  1.00  0.00    -0.003 A 
ATOM      6  C   UNL     1      87.456  48.988  43.096  1.00  0.00     0.122 A 
ENDROOT
BRANCH   1   7
ATOM      7  C   UNL     1      89.458  50.197  42.034  1.00  0.00     0.066 C 
BRANCH   7   8
ATOM      8  C   UNL     1      89.896  51.609  41.753  1.00  0.00    -0.023 C 
ATOM      9  C   UNL     1      89.698  52.336  40.635  1.00  0.00    -0.080 C 
ATOM     10  C   UNL     1      90.203  53.754  40.545  1.00  0.00     0.039 C 
ATOM     11  C   UNL     1      88.999  51.856  39.393  1.00  0.00     0.039 C 
ENDBRANCH   7   8
ENDBRANCH   1   7
BRANCH   6  12
ATOM     12  O   UNL     1      87.760  47.804  42.481  1.00  0.00    -0.507 OA
ATOM     13  H   UNL     1      87.187  47.687  41.707  1.00  0.00     0.293 HD
ENDBRANCH   6  12
BRANCH   3  14
ATOM     14  C   UNL     1      86.256  52.648  45.068  1.00  0.00     0.211 C 
ATOM     15  C   UNL     1      84.903  52.458  45.742  1.00  0.00     0.131 C 
ATOM     16  O   UNL     1      86.196  53.689  44.078  1.00  0.00    -0.484 OA
ATOM     17  C   UNL     1      84.520  53.755  46.392  1.00  0.00     0.174 C 
ATOM     18  C   UNL     1      85.761  54.885  44.584  1.00  0.00     0.138 A 
ATOM     19  O   UNL     1      83.824  53.819  47.403  1.00  0.00    -0.294 OA
ATOM     20  C   UNL     1      84.959  54.994  45.723  1.00  0.00     0.102 A 
ATOM     21  C   UNL     1      86.134  56.033  43.887  1.00  0.00     0.093 A 
ATOM     22  C   UNL     1      84.561  56.255  46.180  1.00  0.00     0.133 A 
ATOM     23  C   UNL     1      85.730  57.282  44.351  1.00  0.00     0.123 A 
ATOM     24  C   UNL     1      84.950  57.405  45.497  1.00  0.00     0.093 A 
BRANCH  22  25
ATOM     25  O   UNL     1      83.778  56.433  47.289  1.00  0.00    -0.507 OA
ATOM     26  H   UNL     1      83.191  55.648  47.380  1.00  0.00     0.293 HD
ENDBRANCH  22  25
BRANCH  23  27
ATOM     27  O   UNL     1      86.127  58.377  43.643  1.00  0.00    -0.508 OA
ATOM     28  H   UNL     1      86.113  58.160  42.694  1.00  0.00     0.293 HD
ENDBRANCH  23  27
ENDBRANCH   3  14
BRANCH   5  29
ATOM     29  C   UNL     1      85.516  47.734  44.166  1.00  0.00     0.075 C 
BRANCH  29  30
ATOM     30  C   UNL     1      84.455  47.511  43.073  1.00  0.00     0.144 C 
BRANCH  30  31
ATOM     31  C   UNL     1      83.046  47.766  43.589  1.00  0.00    -0.052 C 
ATOM     32  C   UNL     1      82.531  48.992  43.795  1.00  0.00     0.010 C 
ATOM     33  C   UNL     1      82.241  46.534  43.908  1.00  0.00     0.041 C 
ENDBRANCH  30  31
BRANCH  30  34
ATOM     34  O   UNL     1      84.549  46.161  42.597  1.00  0.00    -0.388 OA
ATOM     35  H   UNL     1      84.138  45.608  43.283  1.00  0.00     0.211 HD
ENDBRANCH  30  34
ENDBRANCH  29  30
ENDBRANCH   5  29
TORSDOF 10
ENDMDL
MODEL 6
REMARK VINA RESULT:    -9.120      2.682      5.113
REMARK INTER + INTRA:         -14.549
REMARK INTER:                 -13.569
REMARK INTRA:                  -0.980
REMARK UNBOUND:                -1.164
REMARK SMILES C=C(C)C(O)Cc1cc([C@@H]2CC(=O)c3c(O)cc(O)cc3O2)cc(CC=C(C)C)c1O
REMARK SMILES IDX 24 1 23 2 9 3 8 4 7 5 30 6 25 7 26 8 27 9 28 10 29 11 31 12
REMARK SMILES IDX 10 14 11 15 22 16 12 17 21 18 13 19 14 20 20 21 15 22 18 23
REMARK SMILES IDX 17 24 16 25 19 27 6 29 4 30 2 31 1 32 3 33 5 34
REMARK H PARENT 31 13 16 26 19 28 5 35
ROOT
ATOM      1  C   UNL     1      84.995  49.667  44.169  1.00  0.00    -0.002 A 
ATOM      2  C   UNL     1      84.774  50.974  44.640  1.00  0.00     0.015 A 
ATOM      3  C   UNL     1      85.836  51.843  44.932  1.00  0.00    -0.006 A 
ATOM      4  C   UNL     1      87.147  51.381  44.757  1.00  0.00     0.015 A 
ATOM      5  C   UNL     1      87.400  50.077  44.303  1.00  0.00    -0.003 A 
ATOM      6  C   UNL     1      86.318  49.228  44.023  1.00  0.00     0.122 A 
ENDROOT
BRANCH   1   7
ATOM      7  C   UNL     1      83.789  48.807  43.863  1.00  0.00     0.066 C 
BRANCH   7   8
ATOM      8  C   UNL     1      82.630  49.618  43.348  1.00  0.00    -0.023 C 
ATOM      9  C   UNL     1      81.322  49.292  43.346  1.00  0.00    -0.080 C 
ATOM     10  C   UNL     1      80.296  50.249  42.795  1.00  0.00     0.039 C 
ATOM     11  C   UNL     1      80.742  48.000  43.852  1.00  0.00     0.039 C 
ENDBRANCH   7   8
ENDBRANCH   1   7
BRANCH   6  12
ATOM     12  O   UNL     1      86.623  47.963  43.600  1.00  0.00    -0.507 OA
ATOM     13  H   UNL     1      87.330  47.599  44.157  1.00  0.00     0.293 HD
ENDBRANCH   6  12
BRANCH   3  14
ATOM     14  C   UNL     1      85.588  53.242  45.464  1.00  0.00     0.211 C 
ATOM     15  C   UNL     1      84.231  53.317  46.153  1.00  0.00     0.131 C 
ATOM     16  O   UNL     1      85.661  54.171  44.370  1.00  0.00    -0.484 OA
ATOM     17  C   UNL     1      84.043  54.716  46.661  1.00  0.00     0.174 C 
ATOM     18  C   UNL     1      85.404  55.463  44.746  1.00  0.00     0.138 A 
ATOM     19  O   UNL     1      83.377  54.983  47.659  1.00  0.00    -0.294 OA
ATOM     20  C   UNL     1      84.642  55.803  45.866  1.00  0.00     0.102 A 
ATOM     21  C   UNL     1      85.925  56.468  43.931  1.00  0.00     0.093 A 
ATOM     22  C   UNL     1      84.431  57.149  46.186  1.00  0.00     0.133 A 
ATOM     23  C   UNL     1      85.707  57.803  44.260  1.00  0.00     0.123 A 
ATOM     24  C   UNL     1      84.967  58.154  45.386  1.00  0.00     0.093 A 
BRANCH  22  25
ATOM     25  O   UNL     1      83.696  57.551  47.269  1.00  0.00    -0.507 OA
ATOM     26  H   UNL     1      83.234  58.388  47.033  1.00  0.00     0.293 HD
ENDBRANCH  22  25
BRANCH  23  27
ATOM     27  O   UNL     1      86.243  58.751  43.441  1.00  0.00    -0.508 OA
ATOM     28  H   UNL     1      86.596  59.475  43.987  1.00  0.00     0.293 HD
ENDBRANCH  23  27
ENDBRANCH   3  14
BRANCH   5  29
ATOM     29  C   UNL     1      88.833  49.615  44.115  1.00  0.00     0.075 C 
BRANCH  29  30
ATOM     30  C   UNL     1      89.226  49.507  42.630  1.00  0.00     0.144 C 
BRANCH  30  31
ATOM     31  C   UNL     1      90.505  48.705  42.438  1.00  0.00    -0.052 C 
ATOM     32  C   UNL     1      91.603  48.846  43.202  1.00  0.00     0.010 C 
ATOM     33  C   UNL     1      90.496  47.738  41.283  1.00  0.00     0.041 C 
ENDBRANCH  30  31
BRANCH  30  34
ATOM     34  O   UNL     1      89.408  50.826  42.096  1.00  0.00    -0.388 OA
ATOM     35  H   UNL     1      90.223  51.167  42.502  1.00  0.00     0.211 HD
ENDBRANCH  30  34
ENDBRANCH  29  30
ENDBRANCH   5  29
TORSDOF 10
ENDMDL
MODEL 7
REMARK VINA RESULT:    -9.118      2.160      3.524
REMARK INTER + INTRA:         -14.546
REMARK INTER:                 -13.203
REMARK INTRA:                  -1.343
REMARK UNBOUND:                -1.164
REMARK SMILES C=C(C)C(O)Cc1cc([C@@H]2CC(=O)c3c(O)cc(O)cc3O2)cc(CC=C(C)C)c1O
REMARK SMILES IDX 24 1 23 2 9 3 8 4 7 5 30 6 25 7 26 8 27 9 28 10 29 11 31 12
REMARK SMILES IDX 10 14 11 15 22 16 12 17 21 18 13 19 14 20 20 21 15 22 18 23
REMARK SMILES IDX 17 24 16 25 19 27 6 29 4 30 2 31 1 32 3 33 5 34
REMARK H PARENT 31 13 16 26 19 28 5 35
ROOT
ATOM      1  C   UNL     1      87.479  49.691  42.233  1.00  0.00    -0.002 A 
ATOM      2  C   UNL     1      86.985  50.967  42.560  1.00  0.00     0.015 A 
ATOM      3  C   UNL     1      85.838  51.135  43.350  1.00  0.00    -0.006 A 
ATOM      4  C   UNL     1      85.169  49.994  43.810  1.00  0.00     0.015 A 
ATOM      5  C   UNL     1      85.628  48.707  43.489  1.00  0.00    -0.003 A 
ATOM      6  C   UNL     1      86.775  48.569  42.693  1.00  0.00     0.122 A 
ENDROOT
BRANCH   1   7
ATOM      7  C   UNL     1      88.732  49.606  41.391  1.00  0.00     0.066 C 
BRANCH   7   8
ATOM      8  C   UNL     1      89.981  49.632  42.230  1.00  0.00    -0.023 C 
ATOM      9  C   UNL     1      90.752  48.593  42.608  1.00  0.00    -0.080 C 
ATOM     10  C   UNL     1      91.986  48.820  43.445  1.00  0.00     0.039 C 
ATOM     11  C   UNL     1      90.496  47.149  42.278  1.00  0.00     0.039 C 
ENDBRANCH   7   8
ENDBRANCH   1   7
BRANCH   6  12
ATOM     12  O   UNL     1      87.167  47.292  42.397  1.00  0.00    -0.507 OA
ATOM     13  H   UNL     1      88.082  47.159  42.693  1.00  0.00     0.293 HD
ENDBRANCH   6  12
BRANCH   3  14
ATOM     14  C   UNL     1      85.299  52.517  43.675  1.00  0.00     0.211 C 
ATOM     15  C   UNL     1      86.050  53.580  42.885  1.00  0.00     0.131 C 
ATOM     16  O   UNL     1      85.426  52.740  45.089  1.00  0.00    -0.484 OA
ATOM     17  C   UNL     1      85.473  54.919  43.241  1.00  0.00     0.174 C 
ATOM     18  C   UNL     1      85.004  53.985  45.475  1.00  0.00     0.138 A 
ATOM     19  O   UNL     1      85.452  55.869  42.462  1.00  0.00    -0.294 OA
ATOM     20  C   UNL     1      84.979  55.089  44.620  1.00  0.00     0.102 A 
ATOM     21  C   UNL     1      84.612  54.129  46.805  1.00  0.00     0.093 A 
ATOM     22  C   UNL     1      84.527  56.327  45.090  1.00  0.00     0.133 A 
ATOM     23  C   UNL     1      84.166  55.367  47.261  1.00  0.00     0.123 A 
ATOM     24  C   UNL     1      84.115  56.469  46.413  1.00  0.00     0.093 A 
BRANCH  22  25
ATOM     25  O   UNL     1      84.474  57.448  44.306  1.00  0.00    -0.507 OA
ATOM     26  H   UNL     1      85.377  57.838  44.265  1.00  0.00     0.293 HD
ENDBRANCH  22  25
BRANCH  23  27
ATOM     27  O   UNL     1      83.782  55.458  48.566  1.00  0.00    -0.508 OA
ATOM     28  H   UNL     1      84.577  55.478  49.126  1.00  0.00     0.293 HD
ENDBRANCH  23  27
ENDBRANCH   3  14
BRANCH   5  29
ATOM     29  C   UNL     1      84.883  47.494  44.015  1.00  0.00     0.075 C 
BRANCH  29  30
ATOM     30  C   UNL     1      83.797  47.003  43.040  1.00  0.00     0.144 C 
BRANCH  30  31
ATOM     31  C   UNL     1      82.399  47.168  43.618  1.00  0.00    -0.052 C 
ATOM     32  C   UNL     1      81.751  46.209  44.305  1.00  0.00     0.010 C 
ATOM     33  C   UNL     1      81.736  48.491  43.340  1.00  0.00     0.041 C 
ENDBRANCH  30  31
BRANCH  30  34
ATOM     34  O   UNL     1      84.027  45.618  42.742  1.00  0.00    -0.388 OA
ATOM     35  H   UNL     1      83.226  45.148  43.028  1.00  0.00     0.211 HD
ENDBRANCH  30  34
ENDBRANCH  29  30
ENDBRANCH   5  29
TORSDOF 10
ENDMDL
MODEL 8
REMARK VINA RESULT:    -9.077      3.326      7.049
REMARK INTER + INTRA:         -14.487
REMARK INTER:                 -13.145
REMARK INTRA:                  -1.342
REMARK UNBOUND:                -1.164
REMARK SMILES C=C(C)C(O)Cc1cc([C@@H]2CC(=O)c3c(O)cc(O)cc3O2)cc(CC=C(C)C)c1O
REMARK SMILES IDX 24 1 23 2 9 3 8 4 7 5 30 6 25 7 26 8 27 9 28 10 29 11 31 12
REMARK SMILES IDX 10 14 11 15 22 16 12 17 21 18 13 19 14 20 20 21 15 22 18 23
REMARK SMILES IDX 17 24 16 25 19 27 6 29 4 30 2 31 1 32 3 33 5 34
REMARK H PARENT 31 13 16 26 19 28 5 35
ROOT
ATOM      1  C   UNL     1      87.848  51.889  41.829  1.00  0.00    -0.002 A 
ATOM      2  C   UNL     1      86.792  51.056  42.241  1.00  0.00     0.015 A 
ATOM      3  C   UNL     1      85.745  51.534  43.044  1.00  0.00    -0.006 A 
ATOM      4  C   UNL     1      85.770  52.874  43.449  1.00  0.00     0.015 A 
ATOM      5  C   UNL     1      86.818  53.727  43.067  1.00  0.00    -0.003 A 
ATOM      6  C   UNL     1      87.854  53.221  42.267  1.00  0.00     0.122 A 
ENDROOT
BRANCH   1   7
ATOM      7  C   UNL     1      88.924  51.293  40.949  1.00  0.00     0.066 C 
BRANCH   7   8
ATOM      8  C   UNL     1      90.002  50.616  41.752  1.00  0.00    -0.023 C 
ATOM      9  C   UNL     1      90.121  49.306  42.048  1.00  0.00    -0.080 C 
ATOM     10  C   UNL     1      91.290  48.808  42.860  1.00  0.00     0.039 C 
ATOM     11  C   UNL     1      89.154  48.227  41.644  1.00  0.00     0.039 C 
ENDBRANCH   7   8
ENDBRANCH   1   7
BRANCH   6  12
ATOM     12  O   UNL     1      88.858  54.091  41.939  1.00  0.00    -0.507 OA
ATOM     13  H   UNL     1      88.740  54.389  41.023  1.00  0.00     0.293 HD
ENDBRANCH   6  12
BRANCH   3  14
ATOM     14  C   UNL     1      84.624  50.621  43.504  1.00  0.00     0.211 C 
ATOM     15  C   UNL     1      85.009  49.161  43.302  1.00  0.00     0.131 C 
ATOM     16  O   UNL     1      83.433  50.946  42.768  1.00  0.00    -0.484 OA
ATOM     17  C   UNL     1      83.870  48.308  43.777  1.00  0.00     0.174 C 
ATOM     18  C   UNL     1      82.371  50.140  43.084  1.00  0.00     0.138 A 
ATOM     19  O   UNL     1      84.025  47.181  44.242  1.00  0.00    -0.294 OA
ATOM     20  C   UNL     1      82.510  48.850  43.602  1.00  0.00     0.102 A 
ATOM     21  C   UNL     1      81.099  50.655  42.839  1.00  0.00     0.093 A 
ATOM     22  C   UNL     1      81.373  48.092  43.905  1.00  0.00     0.133 A 
ATOM     23  C   UNL     1      79.976  49.890  43.144  1.00  0.00     0.123 A 
ATOM     24  C   UNL     1      80.101  48.612  43.681  1.00  0.00     0.093 A 
BRANCH  22  25
ATOM     25  O   UNL     1      81.438  46.824  44.417  1.00  0.00    -0.507 OA
ATOM     26  H   UNL     1      82.339  46.467  44.242  1.00  0.00     0.293 HD
ENDBRANCH  22  25
BRANCH  23  27
ATOM     27  O   UNL     1      78.753  50.439  42.897  1.00  0.00    -0.508 OA
ATOM     28  H   UNL     1      78.532  50.305  41.959  1.00  0.00     0.293 HD
ENDBRANCH  23  27
ENDBRANCH   3  14
BRANCH   5  29
ATOM     29  C   UNL     1      86.805  55.176  43.516  1.00  0.00     0.075 C 
BRANCH  29  30
ATOM     30  C   UNL     1      85.998  55.384  44.811  1.00  0.00     0.144 C 
BRANCH  30  31
ATOM     31  C   UNL     1      85.543  56.827  44.971  1.00  0.00    -0.052 C 
ATOM     32  C   UNL     1      85.985  57.844  44.208  1.00  0.00     0.010 C 
ATOM     33  C   UNL     1      84.569  57.078  46.091  1.00  0.00     0.041 C 
ENDBRANCH  30  31
BRANCH  30  34
ATOM     34  O   UNL     1      86.811  55.015  45.934  1.00  0.00    -0.388 OA
ATOM     35  H   UNL     1      87.481  55.715  46.018  1.00  0.00     0.211 HD
ENDBRANCH  30  34
ENDBRANCH  29  30
ENDBRANCH   5  29
TORSDOF 10
ENDMDL
MODEL 9
REMARK VINA RESULT:    -8.927      2.420      5.498
REMARK INTER + INTRA:         -14.266
REMARK INTER:                 -13.102
REMARK INTRA:                  -1.164
REMARK UNBOUND:                -1.164
REMARK SMILES C=C(C)C(O)Cc1cc([C@@H]2CC(=O)c3c(O)cc(O)cc3O2)cc(CC=C(C)C)c1O
REMARK SMILES IDX 24 1 23 2 9 3 8 4 7 5 30 6 25 7 26 8 27 9 28 10 29 11 31 12
REMARK SMILES IDX 10 14 11 15 22 16 12 17 21 18 13 19 14 20 20 21 15 22 18 23
REMARK SMILES IDX 17 24 16 25 19 27 6 29 4 30 2 31 1 32 3 33 5 34
REMARK H PARENT 31 13 16 26 19 28 5 35
ROOT
ATOM      1  C   UNL     1      84.347  48.334  43.452  1.00  0.00    -0.002 A 
ATOM      2  C   UNL     1      84.248  49.710  43.728  1.00  0.00     0.015 A 
ATOM      3  C   UNL     1      85.377  50.542  43.746  1.00  0.00    -0.006 A 
ATOM      4  C   UNL     1      86.632  49.974  43.494  1.00  0.00     0.015 A 
ATOM      5  C   UNL     1      86.766  48.602  43.231  1.00  0.00    -0.003 A 
ATOM      6  C   UNL     1      85.620  47.793  43.223  1.00  0.00     0.122 A 
ENDROOT
BRANCH   1   7
ATOM      7  C   UNL     1      83.075  47.517  43.435  1.00  0.00     0.066 C 
BRANCH   7   8
ATOM      8  C   UNL     1      81.855  48.361  43.695  1.00  0.00    -0.023 C 
ATOM      9  C   UNL     1      80.736  48.023  44.364  1.00  0.00    -0.080 C 
ATOM     10  C   UNL     1      79.616  49.018  44.536  1.00  0.00     0.039 C 
ATOM     11  C   UNL     1      80.460  46.681  44.985  1.00  0.00     0.039 C 
ENDBRANCH   7   8
ENDBRANCH   1   7
BRANCH   6  12
ATOM     12  O   UNL     1      85.810  46.460  42.978  1.00  0.00    -0.507 OA
ATOM     13  H   UNL     1      85.928  45.991  43.819  1.00  0.00     0.293 HD
ENDBRANCH   6  12
BRANCH   3  14
ATOM     14  C   UNL     1      85.263  52.021  44.070  1.00  0.00     0.211 C 
ATOM     15  C   UNL     1      86.467  52.779  43.529  1.00  0.00     0.131 C 
ATOM     16  O   UNL     1      85.156  52.174  45.495  1.00  0.00    -0.484 OA
ATOM     17  C   UNL     1      86.298  54.230  43.872  1.00  0.00     0.174 C 
ATOM     18  C   UNL     1      85.092  53.484  45.890  1.00  0.00     0.138 A 
ATOM     19  O   UNL     1      86.752  55.140  43.182  1.00  0.00    -0.294 OA
ATOM     20  C   UNL     1      85.608  54.541  45.137  1.00  0.00     0.102 A 
ATOM     21  C   UNL     1      84.497  53.737  47.125  1.00  0.00     0.093 A 
ATOM     22  C   UNL     1      85.496  55.854  45.609  1.00  0.00     0.133 A 
ATOM     23  C   UNL     1      84.394  55.048  47.583  1.00  0.00     0.123 A 
ATOM     24  C   UNL     1      84.884  56.113  46.833  1.00  0.00     0.093 A 
BRANCH  22  25
ATOM     25  O   UNL     1      85.978  56.936  44.922  1.00  0.00    -0.507 OA
ATOM     26  H   UNL     1      85.579  57.749  45.310  1.00  0.00     0.293 HD
ENDBRANCH  22  25
BRANCH  23  27
ATOM     27  O   UNL     1      83.796  55.249  48.792  1.00  0.00    -0.508 OA
ATOM     28  H   UNL     1      83.378  56.128  48.793  1.00  0.00     0.293 HD
ENDBRANCH  23  27
ENDBRANCH   3  14
BRANCH   5  29
ATOM     29  C   UNL     1      88.141  48.024  42.951  1.00  0.00     0.075 C 
BRANCH  29  30
ATOM     30  C   UNL     1      88.704  48.478  41.592  1.00  0.00     0.144 C 
BRANCH  30  31
ATOM     31  C   UNL     1      89.758  49.564  41.749  1.00  0.00    -0.052 C 
ATOM     32  C   UNL     1      89.566  50.852  41.411  1.00  0.00     0.010 C 
ATOM     33  C   UNL     1      91.088  49.104  42.283  1.00  0.00     0.041 C 
ENDBRANCH  30  31
BRANCH  30  34
ATOM     34  O   UNL     1      87.629  48.973  40.781  1.00  0.00    -0.388 OA
ATOM     35  H   UNL     1      86.812  48.635  41.187  1.00  0.00     0.211 HD
ENDBRANCH  30  34
ENDBRANCH  29  30
ENDBRANCH   5  29
TORSDOF 10
ENDMDL
