MODEL 1
REMARK VINA RESULT:    -7.620      0.000      0.000
REMARK INTER + INTRA:          -8.850
REMARK INTER:                  -8.500
REMARK INTRA:                  -0.350
REMARK UNBOUND:                -0.339
REMARK SMILES CC(C)(C#N)n1cnc(-c2ccc(C#N)cc2)n1
REMARK SMILES IDX 6 1 7 2 8 3 9 4 18 5 2 6 5 7 4 8 1 9 3 10 10 11 11 12 17 13
REMARK SMILES IDX 12 14 16 15 13 16 14 17 15 18
REMARK H PARENT
ROOT
ATOM      1  N   UNL     1      83.582  52.998  41.490  1.00  0.00    -0.233 N 
ATOM      2  C   UNL     1      82.308  53.415  41.252  1.00  0.00     0.222 A 
ATOM      3  N   UNL     1      81.461  52.517  41.694  1.00  0.00    -0.215 NA
ATOM      4  C   UNL     1      82.266  51.529  42.214  1.00  0.00     0.181 A 
ATOM      5  N   UNL     1      83.577  51.793  42.104  1.00  0.00    -0.149 NA
ENDROOT
BRANCH   1   6
ATOM      6  C   UNL     1      84.859  53.659  41.176  1.00  0.00     0.145 C 
ATOM      7  N   UNL     1      84.809  54.753  38.773  1.00  0.00    -0.196 NA
ATOM      8  C   UNL     1      84.835  54.274  39.829  1.00  0.00     0.092 C 
ATOM      9  C   UNL     1      85.133  54.771  42.207  1.00  0.00     0.053 C 
ATOM     10  C   UNL     1      86.000  52.627  41.214  1.00  0.00     0.053 C 
ENDBRANCH   1   6
BRANCH   4  11
ATOM     11  C   UNL     1      81.721  50.318  42.821  1.00  0.00     0.021 A 
ATOM     12  C   UNL     1      80.336  50.147  42.973  1.00  0.00     0.013 A 
ATOM     13  C   UNL     1      82.578  49.301  43.267  1.00  0.00     0.013 A 
ATOM     14  C   UNL     1      79.820  48.984  43.558  1.00  0.00     0.020 A 
ATOM     15  C   UNL     1      82.066  48.138  43.852  1.00  0.00     0.020 A 
ATOM     16  C   UNL     1      80.684  47.978  43.998  1.00  0.00     0.052 A 
ATOM     17  C   UNL     1      80.157  46.786  44.596  1.00  0.00     0.099 C 
ATOM     18  N   UNL     1      79.728  45.822  45.080  1.00  0.00    -0.192 NA
ENDBRANCH   4  11
TORSDOF 2
ENDMDL
MODEL 2
REMARK VINA RESULT:    -7.307      1.262      2.311
REMARK INTER + INTRA:          -8.499
REMARK INTER:                  -8.158
REMARK INTRA:                  -0.341
REMARK UNBOUND:                -0.339
REMARK SMILES CC(C)(C#N)n1cnc(-c2ccc(C#N)cc2)n1
REMARK SMILES IDX 6 1 7 2 8 3 9 4 18 5 2 6 5 7 4 8 1 9 3 10 10 11 11 12 17 13
REMARK SMILES IDX 12 14 16 15 13 16 14 17 15 18
REMARK H PARENT
ROOT
ATOM      1  N   UNL     1      83.895  53.158  41.432  1.00  0.00    -0.233 N 
ATOM      2  C   UNL     1      84.938  52.408  41.883  1.00  0.00     0.222 A 
ATOM      3  N   UNL     1      84.485  51.302  42.422  1.00  0.00    -0.215 NA
ATOM      4  C   UNL     1      83.119  51.401  42.286  1.00  0.00     0.181 A 
ATOM      5  N   UNL     1      82.722  52.532  41.681  1.00  0.00    -0.149 NA
ENDROOT
BRANCH   1   6
ATOM      6  C   UNL     1      83.903  54.467  40.761  1.00  0.00     0.145 C 
ATOM      7  N   UNL     1      84.801  56.363  42.365  1.00  0.00    -0.196 NA
ATOM      8  C   UNL     1      84.406  55.533  41.658  1.00  0.00     0.092 C 
ATOM      9  C   UNL     1      84.818  54.409  39.523  1.00  0.00     0.053 C 
ATOM     10  C   UNL     1      82.472  54.837  40.330  1.00  0.00     0.053 C 
ENDBRANCH   1   6
BRANCH   4  11
ATOM     11  C   UNL     1      82.210  50.363  42.762  1.00  0.00     0.021 A 
ATOM     12  C   UNL     1      82.700  49.195  43.366  1.00  0.00     0.013 A 
ATOM     13  C   UNL     1      80.822  50.516  42.621  1.00  0.00     0.013 A 
ATOM     14  C   UNL     1      81.823  48.202  43.819  1.00  0.00     0.020 A 
ATOM     15  C   UNL     1      79.943  49.527  43.073  1.00  0.00     0.020 A 
ATOM     16  C   UNL     1      80.443  48.367  43.673  1.00  0.00     0.052 A 
ATOM     17  C   UNL     1      79.543  47.351  44.138  1.00  0.00     0.099 C 
ATOM     18  N   UNL     1      78.817  46.527  44.514  1.00  0.00    -0.192 NA
ENDBRANCH   4  11
TORSDOF 2
ENDMDL
MODEL 3
REMARK VINA RESULT:    -7.148      4.051      5.118
REMARK INTER + INTRA:          -8.322
REMARK INTER:                  -7.977
REMARK INTRA:                  -0.345
REMARK UNBOUND:                -0.339
REMARK SMILES CC(C)(C#N)n1cnc(-c2ccc(C#N)cc2)n1
REMARK SMILES IDX 6 1 7 2 8 3 9 4 18 5 2 6 5 7 4 8 1 9 3 10 10 11 11 12 17 13
REMARK SMILES IDX 12 14 16 15 13 16 14 17 15 18
REMARK H PARENT
ROOT
ATOM      1  N   UNL     1      87.511  47.894  42.569  1.00  0.00    -0.233 N 
ATOM      2  C   UNL     1      87.451  46.541  42.427  1.00  0.00     0.222 A 
ATOM      3  N   UNL     1      86.232  46.126  42.675  1.00  0.00    -0.215 NA
ATOM      4  C   UNL     1      85.543  47.278  42.976  1.00  0.00     0.181 A 
ATOM      5  N   UNL     1      86.300  48.385  42.921  1.00  0.00    -0.149 NA
ENDROOT
BRANCH   1   6
ATOM      6  C   UNL     1      88.653  48.805  42.398  1.00  0.00     0.145 C 
ATOM      7  N   UNL     1      88.169  50.611  40.533  1.00  0.00    -0.196 NA
ATOM      8  C   UNL     1      88.385  49.819  41.353  1.00  0.00     0.092 C 
ATOM      9  C   UNL     1      88.931  49.541  43.722  1.00  0.00     0.053 C 
ATOM     10  C   UNL     1      89.899  48.002  41.981  1.00  0.00     0.053 C 
ENDBRANCH   1   6
BRANCH   4  11
ATOM     11  C   UNL     1      84.124  47.271  43.320  1.00  0.00     0.021 A 
ATOM     12  C   UNL     1      83.413  48.470  43.477  1.00  0.00     0.013 A 
ATOM     13  C   UNL     1      83.445  46.056  43.500  1.00  0.00     0.013 A 
ATOM     14  C   UNL     1      82.053  48.456  43.807  1.00  0.00     0.020 A 
ATOM     15  C   UNL     1      82.085  46.039  43.830  1.00  0.00     0.020 A 
ATOM     16  C   UNL     1      81.386  47.240  43.984  1.00  0.00     0.052 A 
ATOM     17  C   UNL     1      79.993  47.225  44.322  1.00  0.00     0.099 C 
ATOM     18  N   UNL     1      78.865  47.215  44.595  1.00  0.00    -0.192 NA
ENDBRANCH   4  11
TORSDOF 2
ENDMDL
MODEL 4
REMARK VINA RESULT:    -7.132      4.314      7.041
REMARK INTER + INTRA:          -8.304
REMARK INTER:                  -7.977
REMARK INTRA:                  -0.327
REMARK UNBOUND:                -0.339
REMARK SMILES CC(C)(C#N)n1cnc(-c2ccc(C#N)cc2)n1
REMARK SMILES IDX 6 1 7 2 8 3 9 4 18 5 2 6 5 7 4 8 1 9 3 10 10 11 11 12 17 13
REMARK SMILES IDX 12 14 16 15 13 16 14 17 15 18
REMARK H PARENT
ROOT
ATOM      1  N   UNL     1      81.751  48.422  43.897  1.00  0.00    -0.233 N 
ATOM      2  C   UNL     1      82.705  49.393  43.916  1.00  0.00     0.222 A 
ATOM      3  N   UNL     1      83.893  48.846  43.834  1.00  0.00    -0.215 NA
ATOM      4  C   UNL     1      83.634  47.497  43.764  1.00  0.00     0.181 A 
ATOM      5  N   UNL     1      82.325  47.200  43.801  1.00  0.00    -0.149 NA
ENDROOT
BRANCH   1   6
ATOM      6  C   UNL     1      80.287  48.544  43.966  1.00  0.00     0.145 C 
ATOM      7  N   UNL     1      79.486  49.131  46.413  1.00  0.00    -0.196 NA
ATOM      8  C   UNL     1      79.834  48.873  45.337  1.00  0.00     0.092 C 
ATOM      9  C   UNL     1      79.816  49.667  43.022  1.00  0.00     0.053 C 
ATOM     10  C   UNL     1      79.635  47.212  43.550  1.00  0.00     0.053 C 
ENDBRANCH   1   6
BRANCH   4  11
ATOM     11  C   UNL     1      84.697  46.502  43.660  1.00  0.00     0.021 A 
ATOM     12  C   UNL     1      84.552  45.227  44.227  1.00  0.00     0.013 A 
ATOM     13  C   UNL     1      85.890  46.808  42.988  1.00  0.00     0.013 A 
ATOM     14  C   UNL     1      85.576  44.278  44.124  1.00  0.00     0.020 A 
ATOM     15  C   UNL     1      86.916  45.862  42.883  1.00  0.00     0.020 A 
ATOM     16  C   UNL     1      86.760  44.594  43.452  1.00  0.00     0.052 A 
ATOM     17  C   UNL     1      87.810  43.623  43.345  1.00  0.00     0.099 C 
ATOM     18  N   UNL     1      88.658  42.836  43.261  1.00  0.00    -0.192 NA
ENDBRANCH   4  11
TORSDOF 2
ENDMDL
MODEL 5
REMARK VINA RESULT:    -7.123      1.815      2.453
REMARK INTER + INTRA:          -8.294
REMARK INTER:                  -7.961
REMARK INTRA:                  -0.333
REMARK UNBOUND:                -0.339
REMARK SMILES CC(C)(C#N)n1cnc(-c2ccc(C#N)cc2)n1
REMARK SMILES IDX 6 1 7 2 8 3 9 4 18 5 2 6 5 7 4 8 1 9 3 10 10 11 11 12 17 13
REMARK SMILES IDX 12 14 16 15 13 16 14 17 15 18
REMARK H PARENT
ROOT
ATOM      1  N   UNL     1      85.391  51.950  42.249  1.00  0.00    -0.233 N 
ATOM      2  C   UNL     1      84.462  52.689  41.583  1.00  0.00     0.222 A 
ATOM      3  N   UNL     1      83.280  52.138  41.720  1.00  0.00    -0.215 NA
ATOM      4  C   UNL     1      83.518  51.028  42.498  1.00  0.00     0.181 A 
ATOM      5  N   UNL     1      84.807  50.882  42.842  1.00  0.00    -0.149 NA
ENDROOT
BRANCH   1   6
ATOM      6  C   UNL     1      86.839  52.166  42.384  1.00  0.00     0.145 C 
ATOM      7  N   UNL     1      88.129  51.421  40.202  1.00  0.00    -0.196 NA
ATOM      8  C   UNL     1      87.566  51.750  41.163  1.00  0.00     0.092 C 
ATOM      9  C   UNL     1      87.120  53.662  42.624  1.00  0.00     0.053 C 
ATOM     10  C   UNL     1      87.378  51.343  43.568  1.00  0.00     0.053 C 
ENDBRANCH   1   6
BRANCH   4  11
ATOM     11  C   UNL     1      82.454  50.113  42.898  1.00  0.00     0.021 A 
ATOM     12  C   UNL     1      82.747  48.898  43.536  1.00  0.00     0.013 A 
ATOM     13  C   UNL     1      81.111  50.435  42.649  1.00  0.00     0.013 A 
ATOM     14  C   UNL     1      81.722  48.025  43.917  1.00  0.00     0.020 A 
ATOM     15  C   UNL     1      80.084  49.564  43.028  1.00  0.00     0.020 A 
ATOM     16  C   UNL     1      80.388  48.356  43.664  1.00  0.00     0.052 A 
ATOM     17  C   UNL     1      79.336  47.463  44.053  1.00  0.00     0.099 C 
ATOM     18  N   UNL     1      78.487  46.738  44.370  1.00  0.00    -0.192 NA
ENDBRANCH   4  11
TORSDOF 2
ENDMDL
MODEL 6
REMARK VINA RESULT:    -7.094      5.836      7.116
REMARK INTER + INTRA:          -8.262
REMARK INTER:                  -7.927
REMARK INTRA:                  -0.335
REMARK UNBOUND:                -0.339
REMARK SMILES CC(C)(C#N)n1cnc(-c2ccc(C#N)cc2)n1
REMARK SMILES IDX 6 1 7 2 8 3 9 4 18 5 2 6 5 7 4 8 1 9 3 10 10 11 11 12 17 13
REMARK SMILES IDX 12 14 16 15 13 16 14 17 15 18
REMARK H PARENT
ROOT
ATOM      1  N   UNL     1      87.194  49.230  42.356  1.00  0.00    -0.233 N 
ATOM      2  C   UNL     1      87.868  48.870  41.229  1.00  0.00     0.222 A 
ATOM      3  N   UNL     1      88.101  47.580  41.248  1.00  0.00    -0.215 NA
ATOM      4  C   UNL     1      87.545  47.159  42.434  1.00  0.00     0.181 A 
ATOM      5  N   UNL     1      86.978  48.149  43.141  1.00  0.00    -0.149 NA
ENDROOT
BRANCH   1   6
ATOM      6  C   UNL     1      86.717  50.555  42.780  1.00  0.00     0.145 C 
ATOM      7  N   UNL     1      84.355  50.395  43.951  1.00  0.00    -0.196 NA
ATOM      8  C   UNL     1      85.392  50.469  43.437  1.00  0.00     0.092 C 
ATOM      9  C   UNL     1      87.712  51.167  43.783  1.00  0.00     0.053 C 
ATOM     10  C   UNL     1      86.587  51.476  41.554  1.00  0.00     0.053 C 
ENDBRANCH   1   6
BRANCH   4  11
ATOM     11  C   UNL     1      87.580  45.763  42.860  1.00  0.00     0.021 A 
ATOM     12  C   UNL     1      88.736  44.986  42.695  1.00  0.00     0.013 A 
ATOM     13  C   UNL     1      86.449  45.172  43.444  1.00  0.00     0.013 A 
ATOM     14  C   UNL     1      88.762  43.648  43.105  1.00  0.00     0.020 A 
ATOM     15  C   UNL     1      86.472  43.835  43.855  1.00  0.00     0.020 A 
ATOM     16  C   UNL     1      87.630  43.070  43.686  1.00  0.00     0.052 A 
ATOM     17  C   UNL     1      87.656  41.699  44.106  1.00  0.00     0.099 C 
ATOM     18  N   UNL     1      87.679  40.590  44.446  1.00  0.00    -0.192 NA
ENDBRANCH   4  11
TORSDOF 2
ENDMDL
MODEL 7
REMARK VINA RESULT:    -7.054      5.680      6.795
REMARK INTER + INTRA:          -8.217
REMARK INTER:                  -7.884
REMARK INTRA:                  -0.333
REMARK UNBOUND:                -0.339
REMARK SMILES CC(C)(C#N)n1cnc(-c2ccc(C#N)cc2)n1
REMARK SMILES IDX 6 1 7 2 8 3 9 4 18 5 2 6 5 7 4 8 1 9 3 10 10 11 11 12 17 13
REMARK SMILES IDX 12 14 16 15 13 16 14 17 15 18
REMARK H PARENT
ROOT
ATOM      1  N   UNL     1      85.952  55.129  43.883  1.00  0.00    -0.233 N 
ATOM      2  C   UNL     1      85.573  54.984  42.584  1.00  0.00     0.222 A 
ATOM      3  N   UNL     1      86.132  53.912  42.079  1.00  0.00    -0.215 NA
ATOM      4  C   UNL     1      86.872  53.400  43.120  1.00  0.00     0.181 A 
ATOM      5  N   UNL     1      86.784  54.125  44.246  1.00  0.00    -0.149 NA
ENDROOT
BRANCH   1   6
ATOM      6  C   UNL     1      85.588  56.171  44.856  1.00  0.00     0.145 C 
ATOM      7  N   UNL     1      86.094  58.585  43.912  1.00  0.00    -0.196 NA
ATOM      8  C   UNL     1      85.870  57.526  44.330  1.00  0.00     0.092 C 
ATOM      9  C   UNL     1      84.082  56.082  45.171  1.00  0.00     0.053 C 
ATOM     10  C   UNL     1      86.399  55.978  46.150  1.00  0.00     0.053 C 
ENDBRANCH   1   6
BRANCH   4  11
ATOM     11  C   UNL     1      87.669  52.184  42.988  1.00  0.00     0.021 A 
ATOM     12  C   UNL     1      88.537  52.003  41.901  1.00  0.00     0.013 A 
ATOM     13  C   UNL     1      87.576  51.169  43.952  1.00  0.00     0.013 A 
ATOM     14  C   UNL     1      89.297  50.834  41.780  1.00  0.00     0.020 A 
ATOM     15  C   UNL     1      88.335  49.999  43.835  1.00  0.00     0.020 A 
ATOM     16  C   UNL     1      89.197  49.829  42.747  1.00  0.00     0.052 A 
ATOM     17  C   UNL     1      89.975  48.631  42.624  1.00  0.00     0.099 C 
ATOM     18  N   UNL     1      90.606  47.662  42.523  1.00  0.00    -0.192 NA
ENDBRANCH   4  11
TORSDOF 2
ENDMDL
MODEL 8
REMARK VINA RESULT:    -6.945      4.185      5.433
REMARK INTER + INTRA:          -8.096
REMARK INTER:                  -7.755
REMARK INTRA:                  -0.341
REMARK UNBOUND:                -0.339
REMARK SMILES CC(C)(C#N)n1cnc(-c2ccc(C#N)cc2)n1
REMARK SMILES IDX 6 1 7 2 8 3 9 4 18 5 2 6 5 7 4 8 1 9 3 10 10 11 11 12 17 13
REMARK SMILES IDX 12 14 16 15 13 16 14 17 15 18
REMARK H PARENT
ROOT
ATOM      1  N   UNL     1      87.589  48.430  42.728  1.00  0.00    -0.233 N 
ATOM      2  C   UNL     1      87.616  47.123  42.349  1.00  0.00     0.222 A 
ATOM      3  N   UNL     1      86.432  46.588  42.524  1.00  0.00    -0.215 NA
ATOM      4  C   UNL     1      85.673  47.619  43.029  1.00  0.00     0.181 A 
ATOM      5  N   UNL     1      86.354  48.768  43.167  1.00  0.00    -0.149 NA
ENDROOT
BRANCH   1   6
ATOM      6  C   UNL     1      88.665  49.433  42.716  1.00  0.00     0.145 C 
ATOM      7  N   UNL     1      90.955  48.394  43.522  1.00  0.00    -0.196 NA
ATOM      8  C   UNL     1      89.951  48.854  43.168  1.00  0.00     0.092 C 
ATOM      9  C   UNL     1      88.856  49.971  41.285  1.00  0.00     0.053 C 
ATOM     10  C   UNL     1      88.302  50.594  43.660  1.00  0.00     0.053 C 
ENDBRANCH   1   6
BRANCH   4  11
ATOM     11  C   UNL     1      84.264  47.455  43.372  1.00  0.00     0.021 A 
ATOM     12  C   UNL     1      83.716  46.181  43.585  1.00  0.00     0.013 A 
ATOM     13  C   UNL     1      83.428  48.576  43.493  1.00  0.00     0.013 A 
ATOM     14  C   UNL     1      82.364  46.030  43.913  1.00  0.00     0.020 A 
ATOM     15  C   UNL     1      82.076  48.428  43.820  1.00  0.00     0.020 A 
ATOM     16  C   UNL     1      81.541  47.154  44.031  1.00  0.00     0.052 A 
ATOM     17  C   UNL     1      80.155  47.001  44.367  1.00  0.00     0.099 C 
ATOM     18  N   UNL     1      79.034  46.875  44.639  1.00  0.00    -0.192 NA
ENDBRANCH   4  11
TORSDOF 2
ENDMDL
MODEL 9
REMARK VINA RESULT:    -6.801      5.929      7.873
REMARK INTER + INTRA:          -7.935
REMARK INTER:                  -7.596
REMARK INTRA:                  -0.339
REMARK UNBOUND:                -0.339
REMARK SMILES CC(C)(C#N)n1cnc(-c2ccc(C#N)cc2)n1
REMARK SMILES IDX 6 1 7 2 8 3 9 4 18 5 2 6 5 7 4 8 1 9 3 10 10 11 11 12 17 13
REMARK SMILES IDX 12 14 16 15 13 16 14 17 15 18
REMARK H PARENT
ROOT
ATOM      1  N   UNL     1      88.356  50.158  43.411  1.00  0.00    -0.233 N 
ATOM      2  C   UNL     1      87.594  49.661  44.424  1.00  0.00     0.222 A 
ATOM      3  N   UNL     1      86.965  50.642  45.025  1.00  0.00    -0.215 NA
ATOM      4  C   UNL     1      87.371  51.765  44.341  1.00  0.00     0.181 A 
ATOM      5  N   UNL     1      88.228  51.503  43.342  1.00  0.00    -0.149 NA
ENDROOT
BRANCH   1   6
ATOM      6  C   UNL     1      89.233  49.453  42.464  1.00  0.00     0.145 C 
ATOM      7  N   UNL     1      87.934  47.527  41.205  1.00  0.00    -0.196 NA
ATOM      8  C   UNL     1      88.508  48.372  41.756  1.00  0.00     0.092 C 
ATOM      9  C   UNL     1      89.763  50.445  41.411  1.00  0.00     0.053 C 
ATOM     10  C   UNL     1      90.415  48.822  43.221  1.00  0.00     0.053 C 
ENDBRANCH   1   6
BRANCH   4  11
ATOM     11  C   UNL     1      86.900  53.102  44.689  1.00  0.00     0.021 A 
ATOM     12  C   UNL     1      86.677  53.465  46.026  1.00  0.00     0.013 A 
ATOM     13  C   UNL     1      86.661  54.053  43.685  1.00  0.00     0.013 A 
ATOM     14  C   UNL     1      86.224  54.748  46.352  1.00  0.00     0.020 A 
ATOM     15  C   UNL     1      86.209  55.337  44.008  1.00  0.00     0.020 A 
ATOM     16  C   UNL     1      85.990  55.687  45.344  1.00  0.00     0.052 A 
ATOM     17  C   UNL     1      85.527  57.003  45.677  1.00  0.00     0.099 C 
ATOM     18  N   UNL     1      85.152  58.067  45.949  1.00  0.00    -0.192 NA
ENDBRANCH   4  11
TORSDOF 2
ENDMDL
