MODEL 1
REMARK VINA RESULT:    -8.643      0.000      0.000
REMARK INTER + INTRA:          -8.643
REMARK INTER:                  -8.643
REMARK INTRA:                   0.000
REMARK UNBOUND:                 0.000
REMARK SMILES CC12CCC3C(CCC4=CC(=O)CCC43C)C1CCC2=O
REMARK SMILES IDX 1 1 2 2 3 3 4 4 5 5 6 6 17 7 18 8 19 9 20 10 21 11 7 12 8 13
REMARK SMILES IDX 9 14 10 15 11 16 12 17 13 18 14 19 15 20 16 21
REMARK H PARENT
ROOT
ATOM      1  C   UNL     1      84.478  55.294  40.567  1.00  0.00     0.020 C 
ATOM      2  C   UNL     1      84.106  54.596  41.881  1.00  0.00     0.029 C 
ATOM      3  C   UNL     1      83.746  55.614  42.978  1.00  0.00     0.015 C 
ATOM      4  C   UNL     1      84.967  56.029  43.790  1.00  0.00     0.006 C 
ATOM      5  C   UNL     1      85.647  54.840  44.498  1.00  0.00     0.002 C 
ATOM      6  C   UNL     1      85.297  53.472  43.854  1.00  0.00    -0.003 C 
ATOM      7  C   UNL     1      85.211  53.591  42.316  1.00  0.00     0.006 C 
ATOM      8  C   UNL     1      84.825  52.283  41.610  1.00  0.00     0.013 C 
ATOM      9  C   UNL     1      83.307  52.215  41.676  1.00  0.00     0.076 C 
ATOM     10  C   UNL     1      82.925  53.670  41.618  1.00  0.00     0.139 C 
ATOM     11  O   UNL     1      81.781  54.055  41.401  1.00  0.00    -0.299 OA
ATOM     12  C   UNL     1      86.318  52.406  44.319  1.00  0.00     0.008 C 
ATOM     13  C   UNL     1      86.882  52.665  45.723  1.00  0.00     0.032 C 
ATOM     14  C   UNL     1      85.879  53.398  46.575  1.00  0.00    -0.060 C 
ATOM     15  C   UNL     1      85.343  52.815  47.661  1.00  0.00     0.047 C 
ATOM     16  C   UNL     1      84.290  53.483  48.460  1.00  0.00     0.155 C 
ATOM     17  O   UNL     1      83.904  52.958  49.502  1.00  0.00    -0.295 OA
ATOM     18  C   UNL     1      83.748  54.808  47.983  1.00  0.00     0.081 C 
ATOM     19  C   UNL     1      83.985  55.024  46.491  1.00  0.00     0.019 C 
ATOM     20  C   UNL     1      85.457  54.781  46.065  1.00  0.00    -0.008 C 
ATOM     21  C   UNL     1      86.373  55.848  46.709  1.00  0.00     0.016 C 
ENDROOT
TORSDOF 0
ENDMDL
MODEL 2
REMARK VINA RESULT:    -8.395      1.423      5.582
REMARK INTER + INTRA:          -8.395
REMARK INTER:                  -8.395
REMARK INTRA:                   0.000
REMARK UNBOUND:                 0.000
REMARK SMILES CC12CCC3C(CCC4=CC(=O)CCC43C)C1CCC2=O
REMARK SMILES IDX 1 1 2 2 3 3 4 4 5 5 6 6 17 7 18 8 19 9 20 10 21 11 7 12 8 13
REMARK SMILES IDX 9 14 10 15 11 16 12 17 13 18 14 19 15 20 16 21
REMARK H PARENT
ROOT
ATOM      1  C   UNL     1      86.741  55.971  47.406  1.00  0.00     0.020 C 
ATOM      2  C   UNL     1      85.542  55.380  46.655  1.00  0.00     0.029 C 
ATOM      3  C   UNL     1      85.710  53.868  46.423  1.00  0.00     0.015 C 
ATOM      4  C   UNL     1      86.414  53.571  45.104  1.00  0.00     0.006 C 
ATOM      5  C   UNL     1      85.652  54.123  43.881  1.00  0.00     0.002 C 
ATOM      6  C   UNL     1      84.663  55.261  44.249  1.00  0.00    -0.003 C 
ATOM      7  C   UNL     1      85.253  56.173  45.347  1.00  0.00     0.006 C 
ATOM      8  C   UNL     1      84.311  57.300  45.795  1.00  0.00     0.013 C 
ATOM      9  C   UNL     1      83.387  56.675  46.829  1.00  0.00     0.076 C 
ATOM     10  C   UNL     1      84.282  55.648  47.469  1.00  0.00     0.139 C 
ATOM     11  O   UNL     1      84.008  55.083  48.522  1.00  0.00    -0.299 OA
ATOM     12  C   UNL     1      84.270  56.036  42.968  1.00  0.00     0.008 C 
ATOM     13  C   UNL     1      84.279  55.174  41.698  1.00  0.00     0.032 C 
ATOM     14  C   UNL     1      83.961  53.738  42.027  1.00  0.00    -0.060 C 
ATOM     15  C   UNL     1      82.837  53.160  41.569  1.00  0.00     0.047 C 
ATOM     16  C   UNL     1      82.464  51.779  41.952  1.00  0.00     0.155 C 
ATOM     17  O   UNL     1      81.483  51.256  41.428  1.00  0.00    -0.295 OA
ATOM     18  C   UNL     1      83.322  51.046  42.953  1.00  0.00     0.081 C 
ATOM     19  C   UNL     1      84.149  52.001  43.811  1.00  0.00     0.019 C 
ATOM     20  C   UNL     1      84.943  53.040  42.977  1.00  0.00    -0.008 C 
ATOM     21  C   UNL     1      86.023  52.323  42.135  1.00  0.00     0.016 C 
ENDROOT
TORSDOF 0
ENDMDL
MODEL 3
REMARK VINA RESULT:    -8.263      1.155      5.828
REMARK INTER + INTRA:          -8.263
REMARK INTER:                  -8.263
REMARK INTRA:                   0.000
REMARK UNBOUND:                 0.000
REMARK SMILES CC12CCC3C(CCC4=CC(=O)CCC43C)C1CCC2=O
REMARK SMILES IDX 1 1 2 2 3 3 4 4 5 5 6 6 17 7 18 8 19 9 20 10 21 11 7 12 8 13
REMARK SMILES IDX 9 14 10 15 11 16 12 17 13 18 14 19 15 20 16 21
REMARK H PARENT
ROOT
ATOM      1  C   UNL     1      85.994  52.746  48.746  1.00  0.00     0.020 C 
ATOM      2  C   UNL     1      85.134  53.235  47.573  1.00  0.00     0.029 C 
ATOM      3  C   UNL     1      85.083  52.196  46.439  1.00  0.00     0.015 C 
ATOM      4  C   UNL     1      86.205  52.405  45.428  1.00  0.00     0.006 C 
ATOM      5  C   UNL     1      86.156  53.793  44.757  1.00  0.00     0.002 C 
ATOM      6  C   UNL     1      85.350  54.834  45.580  1.00  0.00    -0.003 C 
ATOM      7  C   UNL     1      85.587  54.645  47.095  1.00  0.00     0.006 C 
ATOM      8  C   UNL     1      84.786  55.614  47.977  1.00  0.00     0.013 C 
ATOM      9  C   UNL     1      83.409  54.987  48.128  1.00  0.00     0.076 C 
ATOM     10  C   UNL     1      83.728  53.516  48.090  1.00  0.00     0.139 C 
ATOM     11  O   UNL     1      82.930  52.647  48.423  1.00  0.00    -0.299 OA
ATOM     12  C   UNL     1      85.696  56.259  45.089  1.00  0.00     0.008 C 
ATOM     13  C   UNL     1      86.071  56.325  43.601  1.00  0.00     0.032 C 
ATOM     14  C   UNL     1      85.368  55.241  42.826  1.00  0.00    -0.060 C 
ATOM     15  C   UNL     1      84.454  55.547  41.890  1.00  0.00     0.047 C 
ATOM     16  C   UNL     1      83.689  54.496  41.180  1.00  0.00     0.155 C 
ATOM     17  O   UNL     1      82.940  54.818  40.260  1.00  0.00    -0.295 OA
ATOM     18  C   UNL     1      83.881  53.057  41.589  1.00  0.00     0.081 C 
ATOM     19  C   UNL     1      84.438  52.931  43.005  1.00  0.00     0.019 C 
ATOM     20  C   UNL     1      85.698  53.803  43.246  1.00  0.00    -0.008 C 
ATOM     21  C   UNL     1      86.868  53.287  42.377  1.00  0.00     0.016 C 
ENDROOT
TORSDOF 0
ENDMDL
MODEL 4
REMARK VINA RESULT:    -8.197      1.073      5.853
REMARK INTER + INTRA:          -8.197
REMARK INTER:                  -8.197
REMARK INTRA:                   0.000
REMARK UNBOUND:                 0.000
REMARK SMILES CC12CCC3C(CCC4=CC(=O)CCC43C)C1CCC2=O
REMARK SMILES IDX 1 1 2 2 3 3 4 4 5 5 6 6 17 7 18 8 19 9 20 10 21 11 7 12 8 13
REMARK SMILES IDX 9 14 10 15 11 16 12 17 13 18 14 19 15 20 16 21
REMARK H PARENT
ROOT
ATOM      1  C   UNL     1      86.322  52.867  47.661  1.00  0.00     0.020 C 
ATOM      2  C   UNL     1      85.146  53.295  46.773  1.00  0.00     0.029 C 
ATOM      3  C   UNL     1      84.668  52.141  45.876  1.00  0.00     0.015 C 
ATOM      4  C   UNL     1      85.397  52.123  44.537  1.00  0.00     0.006 C 
ATOM      5  C   UNL     1      85.198  53.421  43.729  1.00  0.00     0.002 C 
ATOM      6  C   UNL     1      84.766  54.623  44.612  1.00  0.00    -0.003 C 
ATOM      7  C   UNL     1      85.485  54.590  45.980  1.00  0.00     0.006 C 
ATOM      8  C   UNL     1      85.074  55.727  46.927  1.00  0.00     0.013 C 
ATOM      9  C   UNL     1      83.796  55.255  47.603  1.00  0.00     0.076 C 
ATOM     10  C   UNL     1      84.009  53.766  47.672  1.00  0.00     0.139 C 
ATOM     11  O   UNL     1      83.324  53.022  48.365  1.00  0.00    -0.299 OA
ATOM     12  C   UNL     1      85.000  55.942  43.839  1.00  0.00     0.008 C 
ATOM     13  C   UNL     1      84.860  55.798  42.317  1.00  0.00     0.032 C 
ATOM     14  C   UNL     1      83.886  54.702  41.973  1.00  0.00    -0.060 C 
ATOM     15  C   UNL     1      82.729  54.981  41.349  1.00  0.00     0.047 C 
ATOM     16  C   UNL     1      81.719  53.932  41.081  1.00  0.00     0.155 C 
ATOM     17  O   UNL     1      80.723  54.213  40.417  1.00  0.00    -0.295 OA
ATOM     18  C   UNL     1      81.963  52.538  41.606  1.00  0.00     0.081 C 
ATOM     19  C   UNL     1      82.953  52.526  42.768  1.00  0.00     0.019 C 
ATOM     20  C   UNL     1      84.263  53.298  42.463  1.00  0.00    -0.008 C 
ATOM     21  C   UNL     1      85.049  52.576  41.344  1.00  0.00     0.016 C 
ENDROOT
TORSDOF 0
ENDMDL
MODEL 5
REMARK VINA RESULT:    -7.929      2.650      5.521
REMARK INTER + INTRA:          -7.929
REMARK INTER:                  -7.929
REMARK INTRA:                   0.000
REMARK UNBOUND:                 0.000
REMARK SMILES CC12CCC3C(CCC4=CC(=O)CCC43C)C1CCC2=O
REMARK SMILES IDX 1 1 2 2 3 3 4 4 5 5 6 6 17 7 18 8 19 9 20 10 21 11 7 12 8 13
REMARK SMILES IDX 9 14 10 15 11 16 12 17 13 18 14 19 15 20 16 21
REMARK H PARENT
ROOT
ATOM      1  C   UNL     1      83.815  56.520  46.409  1.00  0.00     0.020 C 
ATOM      2  C   UNL     1      84.896  55.487  46.067  1.00  0.00     0.029 C 
ATOM      3  C   UNL     1      85.688  55.894  44.812  1.00  0.00     0.015 C 
ATOM      4  C   UNL     1      85.057  55.343  43.538  1.00  0.00     0.006 C 
ATOM      5  C   UNL     1      84.976  53.803  43.528  1.00  0.00     0.002 C 
ATOM      6  C   UNL     1      85.055  53.184  44.950  1.00  0.00    -0.003 C 
ATOM      7  C   UNL     1      84.294  54.055  45.975  1.00  0.00     0.006 C 
ATOM      8  C   UNL     1      84.365  53.527  47.415  1.00  0.00     0.013 C 
ATOM      9  C   UNL     1      85.682  54.041  47.975  1.00  0.00     0.076 C 
ATOM     10  C   UNL     1      85.835  55.356  47.260  1.00  0.00     0.139 C 
ATOM     11  O   UNL     1      86.642  56.215  47.598  1.00  0.00    -0.299 OA
ATOM     12  C   UNL     1      84.546  51.723  44.905  1.00  0.00     0.008 C 
ATOM     13  C   UNL     1      84.798  51.024  43.562  1.00  0.00     0.032 C 
ATOM     14  C   UNL     1      86.027  51.581  42.892  1.00  0.00    -0.060 C 
ATOM     15  C   UNL     1      87.112  50.812  42.698  1.00  0.00     0.047 C 
ATOM     16  C   UNL     1      88.360  51.364  42.123  1.00  0.00     0.155 C 
ATOM     17  O   UNL     1      89.291  50.602  41.868  1.00  0.00    -0.295 OA
ATOM     18  C   UNL     1      88.436  52.844  41.837  1.00  0.00     0.081 C 
ATOM     19  C   UNL     1      87.419  53.640  42.651  1.00  0.00     0.019 C 
ATOM     20  C   UNL     1      85.978  53.075  42.549  1.00  0.00    -0.008 C 
ATOM     21  C   UNL     1      85.452  53.235  41.104  1.00  0.00     0.016 C 
ENDROOT
TORSDOF 0
ENDMDL
MODEL 6
REMARK VINA RESULT:    -7.726      3.584      5.953
REMARK INTER + INTRA:          -7.726
REMARK INTER:                  -7.726
REMARK INTRA:                   0.000
REMARK UNBOUND:                 0.000
REMARK SMILES CC12CCC3C(CCC4=CC(=O)CCC43C)C1CCC2=O
REMARK SMILES IDX 1 1 2 2 3 3 4 4 5 5 6 6 17 7 18 8 19 9 20 10 21 11 7 12 8 13
REMARK SMILES IDX 9 14 10 15 11 16 12 17 13 18 14 19 15 20 16 21
REMARK H PARENT
ROOT
ATOM      1  C   UNL     1      89.719  49.223  43.975  1.00  0.00     0.020 C 
ATOM      2  C   UNL     1      88.501  49.655  43.147  1.00  0.00     0.029 C 
ATOM      3  C   UNL     1      88.260  51.172  43.246  1.00  0.00     0.015 C 
ATOM      4  C   UNL     1      87.333  51.525  44.403  1.00  0.00     0.006 C 
ATOM      5  C   UNL     1      85.944  50.864  44.281  1.00  0.00     0.002 C 
ATOM      6  C   UNL     1      85.945  49.625  43.346  1.00  0.00    -0.003 C 
ATOM      7  C   UNL     1      87.247  48.809  43.511  1.00  0.00     0.006 C 
ATOM      8  C   UNL     1      87.338  47.588  42.584  1.00  0.00     0.013 C 
ATOM      9  C   UNL     1      87.855  48.119  41.256  1.00  0.00     0.076 C 
ATOM     10  C   UNL     1      88.738  49.256  41.695  1.00  0.00     0.139 C 
ATOM     11  O   UNL     1      89.544  49.805  40.952  1.00  0.00    -0.299 OA
ATOM     12  C   UNL     1      84.671  48.785  43.604  1.00  0.00     0.008 C 
ATOM     13  C   UNL     1      83.464  49.619  44.056  1.00  0.00     0.032 C 
ATOM     14  C   UNL     1      83.536  51.013  43.490  1.00  0.00    -0.060 C 
ATOM     15  C   UNL     1      82.618  51.446  42.609  1.00  0.00     0.047 C 
ATOM     16  C   UNL     1      82.721  52.780  41.975  1.00  0.00     0.155 C 
ATOM     17  O   UNL     1      81.805  53.174  41.256  1.00  0.00    -0.295 OA
ATOM     18  C   UNL     1      83.936  53.628  42.259  1.00  0.00     0.081 C 
ATOM     19  C   UNL     1      85.120  52.793  42.742  1.00  0.00     0.019 C 
ATOM     20  C   UNL     1      84.759  51.839  43.911  1.00  0.00    -0.008 C 
ATOM     21  C   UNL     1      84.393  52.663  45.167  1.00  0.00     0.016 C 
ENDROOT
TORSDOF 0
ENDMDL
MODEL 7
REMARK VINA RESULT:    -7.088      4.487      7.251
REMARK INTER + INTRA:          -7.088
REMARK INTER:                  -7.088
REMARK INTRA:                   0.000
REMARK UNBOUND:                 0.000
REMARK SMILES CC12CCC3C(CCC4=CC(=O)CCC43C)C1CCC2=O
REMARK SMILES IDX 1 1 2 2 3 3 4 4 5 5 6 6 17 7 18 8 19 9 20 10 21 11 7 12 8 13
REMARK SMILES IDX 9 14 10 15 11 16 12 17 13 18 14 19 15 20 16 21
REMARK H PARENT
ROOT
ATOM      1  C   UNL     1      87.935  50.005  44.225  1.00  0.00     0.020 C 
ATOM      2  C   UNL     1      86.511  49.739  44.728  1.00  0.00     0.029 C 
ATOM      3  C   UNL     1      86.158  48.242  44.656  1.00  0.00     0.015 C 
ATOM      4  C   UNL     1      85.529  47.870  43.319  1.00  0.00     0.006 C 
ATOM      5  C   UNL     1      84.226  48.645  43.034  1.00  0.00     0.002 C 
ATOM      6  C   UNL     1      84.106  49.952  43.863  1.00  0.00    -0.003 C 
ATOM      7  C   UNL     1      85.479  50.648  43.999  1.00  0.00     0.006 C 
ATOM      8  C   UNL     1      85.447  51.929  44.845  1.00  0.00     0.013 C 
ATOM      9  C   UNL     1      85.552  51.468  46.291  1.00  0.00     0.076 C 
ATOM     10  C   UNL     1      86.405  50.234  46.165  1.00  0.00     0.139 C 
ATOM     11  O   UNL     1      86.937  49.685  47.124  1.00  0.00    -0.299 OA
ATOM     12  C   UNL     1      83.028  50.865  43.232  1.00  0.00     0.008 C 
ATOM     13  C   UNL     1      81.903  50.094  42.527  1.00  0.00     0.032 C 
ATOM     14  C   UNL     1      81.693  48.749  43.172  1.00  0.00    -0.060 C 
ATOM     15  C   UNL     1      80.542  48.462  43.804  1.00  0.00     0.047 C 
ATOM     16  C   UNL     1      80.350  47.179  44.519  1.00  0.00     0.155 C 
ATOM     17  O   UNL     1      79.246  46.917  44.993  1.00  0.00    -0.295 OA
ATOM     18  C   UNL     1      81.510  46.219  44.613  1.00  0.00     0.081 C 
ATOM     19  C   UNL     1      82.852  46.917  44.411  1.00  0.00     0.019 C 
ATOM     20  C   UNL     1      82.897  47.799  43.135  1.00  0.00    -0.008 C 
ATOM     21  C   UNL     1      82.787  46.908  41.877  1.00  0.00     0.016 C 
ENDROOT
TORSDOF 0
ENDMDL
MODEL 8
REMARK VINA RESULT:    -6.943      2.796      4.876
REMARK INTER + INTRA:          -6.943
REMARK INTER:                  -6.943
REMARK INTRA:                   0.000
REMARK UNBOUND:                 0.000
REMARK SMILES CC12CCC3C(CCC4=CC(=O)CCC43C)C1CCC2=O
REMARK SMILES IDX 1 1 2 2 3 3 4 4 5 5 6 6 17 7 18 8 19 9 20 10 21 11 7 12 8 13
REMARK SMILES IDX 9 14 10 15 11 16 12 17 13 18 14 19 15 20 16 21
REMARK H PARENT
ROOT
ATOM      1  C   UNL     1      86.886  49.445  44.407  1.00  0.00     0.020 C 
ATOM      2  C   UNL     1      87.006  50.890  43.907  1.00  0.00     0.029 C 
ATOM      3  C   UNL     1      87.287  51.865  45.064  1.00  0.00     0.015 C 
ATOM      4  C   UNL     1      85.999  52.407  45.674  1.00  0.00     0.006 C 
ATOM      5  C   UNL     1      85.129  53.170  44.655  1.00  0.00     0.002 C 
ATOM      6  C   UNL     1      85.455  52.799  43.183  1.00  0.00    -0.003 C 
ATOM      7  C   UNL     1      85.771  51.292  43.050  1.00  0.00     0.006 C 
ATOM      8  C   UNL     1      86.147  50.857  41.626  1.00  0.00     0.013 C 
ATOM      9  C   UNL     1      87.628  51.168  41.481  1.00  0.00     0.076 C 
ATOM     10  C   UNL     1      88.133  50.954  42.882  1.00  0.00     0.139 C 
ATOM     11  O   UNL     1      89.324  50.862  43.161  1.00  0.00    -0.299 OA
ATOM     12  C   UNL     1      84.294  53.254  42.267  1.00  0.00     0.008 C 
ATOM     13  C   UNL     1      83.556  54.499  42.779  1.00  0.00     0.032 C 
ATOM     14  C   UNL     1      84.483  55.377  43.578  1.00  0.00    -0.060 C 
ATOM     15  C   UNL     1      84.807  56.608  43.146  1.00  0.00     0.047 C 
ATOM     16  C   UNL     1      85.785  57.452  43.871  1.00  0.00     0.155 C 
ATOM     17  O   UNL     1      85.972  58.608  43.496  1.00  0.00    -0.295 OA
ATOM     18  C   UNL     1      86.496  56.873  45.069  1.00  0.00     0.081 C 
ATOM     19  C   UNL     1      86.496  55.347  45.056  1.00  0.00     0.019 C 
ATOM     20  C   UNL     1      85.086  54.738  44.836  1.00  0.00    -0.008 C 
ATOM     21  C   UNL     1      84.177  55.066  46.043  1.00  0.00     0.016 C 
ENDROOT
TORSDOF 0
ENDMDL
MODEL 9
REMARK VINA RESULT:    -6.897      3.481      5.429
REMARK INTER + INTRA:          -6.897
REMARK INTER:                  -6.897
REMARK INTRA:                   0.000
REMARK UNBOUND:                 0.000
REMARK SMILES CC12CCC3C(CCC4=CC(=O)CCC43C)C1CCC2=O
REMARK SMILES IDX 1 1 2 2 3 3 4 4 5 5 6 6 17 7 18 8 19 9 20 10 21 11 7 12 8 13
REMARK SMILES IDX 9 14 10 15 11 16 12 17 13 18 14 19 15 20 16 21
REMARK H PARENT
ROOT
ATOM      1  C   UNL     1      84.119  54.730  43.694  1.00  0.00     0.020 C 
ATOM      2  C   UNL     1      84.469  53.428  42.961  1.00  0.00     0.029 C 
ATOM      3  C   UNL     1      84.437  52.219  43.913  1.00  0.00     0.015 C 
ATOM      4  C   UNL     1      85.794  51.971  44.561  1.00  0.00     0.006 C 
ATOM      5  C   UNL     1      86.908  51.693  43.531  1.00  0.00     0.002 C 
ATOM      6  C   UNL     1      86.563  52.216  42.110  1.00  0.00    -0.003 C 
ATOM      7  C   UNL     1      85.811  53.564  42.186  1.00  0.00     0.006 C 
ATOM      8  C   UNL     1      85.397  54.124  40.818  1.00  0.00     0.013 C 
ATOM      9  C   UNL     1      84.089  53.430  40.470  1.00  0.00     0.076 C 
ATOM     10  C   UNL     1      83.470  53.229  41.827  1.00  0.00     0.139 C 
ATOM     11  O   UNL     1      82.295  52.920  41.990  1.00  0.00    -0.299 OA
ATOM     12  C   UNL     1      87.853  52.292  41.261  1.00  0.00     0.008 C 
ATOM     13  C   UNL     1      88.906  51.243  41.644  1.00  0.00     0.032 C 
ATOM     14  C   UNL     1      88.249  50.003  42.191  1.00  0.00    -0.060 C 
ATOM     15  C   UNL     1      88.336  48.832  41.537  1.00  0.00     0.047 C 
ATOM     16  C   UNL     1      87.624  47.623  42.013  1.00  0.00     0.155 C 
ATOM     17  O   UNL     1      87.817  46.551  41.442  1.00  0.00    -0.295 OA
ATOM     18  C   UNL     1      86.708  47.742  43.206  1.00  0.00     0.081 C 
ATOM     19  C   UNL     1      86.247  49.179  43.436  1.00  0.00     0.019 C 
ATOM     20  C   UNL     1      87.415  50.199  43.464  1.00  0.00    -0.008 C 
ATOM     21  C   UNL     1      88.315  49.933  44.693  1.00  0.00     0.016 C 
ENDROOT
TORSDOF 0
ENDMDL
