MODEL 1
REMARK VINA RESULT:    -7.503      0.000      0.000
REMARK INTER + INTRA:          -8.331
REMARK INTER:                  -7.925
REMARK INTRA:                  -0.406
REMARK UNBOUND:                 0.050
REMARK SMILES CC(C)(C#N)n1cnc(-c2ccc(Cl)cc2Cl)n1
REMARK SMILES IDX 6 1 7 2 8 3 9 4 18 5 2 6 5 7 4 8 1 9 3 10 10 11 11 12 16 13
REMARK SMILES IDX 12 14 15 15 13 16 17 17 14 18
REMARK H PARENT
ROOT
ATOM      1  N   UNL     1      87.348  49.256  43.603  1.00  0.00    -0.233 N 
ATOM      2  C   UNL     1      86.324  48.465  44.024  1.00  0.00     0.222 A 
ATOM      3  N   UNL     1      85.649  49.083  44.966  1.00  0.00    -0.215 NA
ATOM      4  C   UNL     1      86.284  50.299  45.088  1.00  0.00     0.182 A 
ATOM      5  N   UNL     1      87.355  50.419  44.291  1.00  0.00    -0.149 NA
ENDROOT
BRANCH   1   6
ATOM      6  C   UNL     1      88.349  49.017  42.554  1.00  0.00     0.145 C 
ATOM      7  N   UNL     1      88.014  50.666  40.518  1.00  0.00    -0.196 NA
ATOM      8  C   UNL     1      88.164  49.938  41.411  1.00  0.00     0.092 C 
ATOM      9  C   UNL     1      89.759  49.237  43.132  1.00  0.00     0.053 C 
ATOM     10  C   UNL     1      88.227  47.573  42.029  1.00  0.00     0.053 C 
ENDBRANCH   1   6
BRANCH   4  11
ATOM     11  C   UNL     1      85.850  51.294  46.059  1.00  0.00     0.040 A 
ATOM     12  C   UNL     1      84.864  52.217  45.657  1.00  0.00     0.015 A 
ATOM     13  C   UNL     1      86.360  51.387  47.366  1.00  0.00     0.053 A 
ATOM     14  C   UNL     1      84.385  53.191  46.537  1.00  0.00     0.021 A 
ATOM     15  C   UNL     1      85.878  52.364  48.247  1.00  0.00     0.041 A 
ATOM     16  C   UNL     1      84.892  53.257  47.830  1.00  0.00     0.042 A 
ATOM     17  Cl  UNL     1      87.631  50.375  47.969  1.00  0.00    -0.083 Cl
ATOM     18  Cl  UNL     1      84.307  54.454  48.918  1.00  0.00    -0.084 Cl
ENDBRANCH   4  11
TORSDOF 2
ENDMDL
MODEL 2
REMARK VINA RESULT:    -7.489      4.149      7.037
REMARK INTER + INTRA:          -8.314
REMARK INTER:                  -7.936
REMARK INTRA:                  -0.378
REMARK UNBOUND:                 0.050
REMARK SMILES CC(C)(C#N)n1cnc(-c2ccc(Cl)cc2Cl)n1
REMARK SMILES IDX 6 1 7 2 8 3 9 4 18 5 2 6 5 7 4 8 1 9 3 10 10 11 11 12 16 13
REMARK SMILES IDX 12 14 15 15 13 16 17 17 14 18
REMARK H PARENT
ROOT
ATOM      1  N   UNL     1      85.971  55.135  43.697  1.00  0.00    -0.233 N 
ATOM      2  C   UNL     1      85.426  54.897  42.473  1.00  0.00     0.222 A 
ATOM      3  N   UNL     1      86.026  53.870  41.916  1.00  0.00    -0.215 NA
ATOM      4  C   UNL     1      86.944  53.469  42.861  1.00  0.00     0.182 A 
ATOM      5  N   UNL     1      86.961  54.251  43.950  1.00  0.00    -0.149 NA
ENDROOT
BRANCH   1   6
ATOM      6  C   UNL     1      85.616  56.147  44.702  1.00  0.00     0.145 C 
ATOM      7  N   UNL     1      86.042  58.589  43.792  1.00  0.00    -0.196 NA
ATOM      8  C   UNL     1      85.854  57.516  44.197  1.00  0.00     0.092 C 
ATOM      9  C   UNL     1      84.125  56.012  45.059  1.00  0.00     0.053 C 
ATOM     10  C   UNL     1      86.469  55.951  45.971  1.00  0.00     0.053 C 
ENDBRANCH   1   6
BRANCH   4  11
ATOM     11  C   UNL     1      87.847  52.349  42.624  1.00  0.00     0.040 A 
ATOM     12  C   UNL     1      88.802  52.483  41.597  1.00  0.00     0.015 A 
ATOM     13  C   UNL     1      87.814  51.149  43.355  1.00  0.00     0.053 A 
ATOM     14  C   UNL     1      89.712  51.460  41.320  1.00  0.00     0.021 A 
ATOM     15  C   UNL     1      88.729  50.124  43.076  1.00  0.00     0.041 A 
ATOM     16  C   UNL     1      89.673  50.286  42.065  1.00  0.00     0.042 A 
ATOM     17  Cl  UNL     1      86.643  50.814  44.588  1.00  0.00    -0.083 Cl
ATOM     18  Cl  UNL     1      90.791  49.023  41.728  1.00  0.00    -0.084 Cl
ENDBRANCH   4  11
TORSDOF 2
ENDMDL
MODEL 3
REMARK VINA RESULT:    -7.448      3.849      4.753
REMARK INTER + INTRA:          -8.268
REMARK INTER:                  -7.907
REMARK INTRA:                  -0.362
REMARK UNBOUND:                 0.050
REMARK SMILES CC(C)(C#N)n1cnc(-c2ccc(Cl)cc2Cl)n1
REMARK SMILES IDX 6 1 7 2 8 3 9 4 18 5 2 6 5 7 4 8 1 9 3 10 10 11 11 12 16 13
REMARK SMILES IDX 12 14 15 15 13 16 17 17 14 18
REMARK H PARENT
ROOT
ATOM      1  N   UNL     1      87.607  52.457  42.158  1.00  0.00    -0.233 N 
ATOM      2  C   UNL     1      87.010  51.819  43.201  1.00  0.00     0.222 A 
ATOM      3  N   UNL     1      86.377  52.693  43.948  1.00  0.00    -0.215 NA
ATOM      4  C   UNL     1      86.587  53.893  43.306  1.00  0.00     0.182 A 
ATOM      5  N   UNL     1      87.371  53.786  42.225  1.00  0.00    -0.149 NA
ENDROOT
BRANCH   1   6
ATOM      6  C   UNL     1      88.394  51.906  41.046  1.00  0.00     0.145 C 
ATOM      7  N   UNL     1      88.198  49.274  40.948  1.00  0.00    -0.196 NA
ATOM      8  C   UNL     1      88.289  50.432  40.988  1.00  0.00     0.092 C 
ATOM      9  C   UNL     1      87.876  52.484  39.717  1.00  0.00     0.053 C 
ATOM     10  C   UNL     1      89.881  52.271  41.221  1.00  0.00     0.053 C 
ENDBRANCH   1   6
BRANCH   4  11
ATOM     11  C   UNL     1      86.057  55.145  43.832  1.00  0.00     0.040 A 
ATOM     12  C   UNL     1      86.465  55.540  45.121  1.00  0.00     0.015 A 
ATOM     13  C   UNL     1      85.164  55.973  43.131  1.00  0.00     0.053 A 
ATOM     14  C   UNL     1      86.014  56.734  45.688  1.00  0.00     0.021 A 
ATOM     15  C   UNL     1      84.713  57.172  43.700  1.00  0.00     0.041 A 
ATOM     16  C   UNL     1      85.142  57.547  44.971  1.00  0.00     0.042 A 
ATOM     17  Cl  UNL     1      84.514  55.574  41.574  1.00  0.00    -0.083 Cl
ATOM     18  Cl  UNL     1      84.582  59.019  45.663  1.00  0.00    -0.084 Cl
ENDBRANCH   4  11
TORSDOF 2
ENDMDL
MODEL 4
REMARK VINA RESULT:    -7.321      2.545      3.637
REMARK INTER + INTRA:          -8.127
REMARK INTER:                  -7.722
REMARK INTRA:                  -0.405
REMARK UNBOUND:                 0.050
REMARK SMILES CC(C)(C#N)n1cnc(-c2ccc(Cl)cc2Cl)n1
REMARK SMILES IDX 6 1 7 2 8 3 9 4 18 5 2 6 5 7 4 8 1 9 3 10 10 11 11 12 16 13
REMARK SMILES IDX 12 14 15 15 13 16 17 17 14 18
REMARK H PARENT
ROOT
ATOM      1  N   UNL     1      86.046  47.206  43.525  1.00  0.00    -0.233 N 
ATOM      2  C   UNL     1      86.906  48.007  42.838  1.00  0.00     0.222 A 
ATOM      3  N   UNL     1      87.045  49.148  43.472  1.00  0.00    -0.215 NA
ATOM      4  C   UNL     1      86.257  49.005  44.592  1.00  0.00     0.182 A 
ATOM      5  N   UNL     1      85.599  47.838  44.632  1.00  0.00    -0.149 NA
ENDROOT
BRANCH   1   6
ATOM      6  C   UNL     1      85.604  45.835  43.233  1.00  0.00     0.145 C 
ATOM      7  N   UNL     1      87.598  44.361  42.322  1.00  0.00    -0.196 NA
ATOM      8  C   UNL     1      86.717  45.006  42.721  1.00  0.00     0.092 C 
ATOM      9  C   UNL     1      85.067  45.185  44.521  1.00  0.00     0.053 C 
ATOM     10  C   UNL     1      84.494  45.855  42.164  1.00  0.00     0.053 C 
ENDBRANCH   1   6
BRANCH   4  11
ATOM     11  C   UNL     1      86.115  50.077  45.569  1.00  0.00     0.040 A 
ATOM     12  C   UNL     1      86.784  49.935  46.800  1.00  0.00     0.015 A 
ATOM     13  C   UNL     1      85.349  51.236  45.354  1.00  0.00     0.053 A 
ATOM     14  C   UNL     1      86.710  50.927  47.781  1.00  0.00     0.021 A 
ATOM     15  C   UNL     1      85.276  52.231  46.339  1.00  0.00     0.041 A 
ATOM     16  C   UNL     1      85.959  52.073  47.544  1.00  0.00     0.042 A 
ATOM     17  Cl  UNL     1      84.408  51.507  43.924  1.00  0.00    -0.083 Cl
ATOM     18  Cl  UNL     1      85.863  53.297  48.747  1.00  0.00    -0.084 Cl
ENDBRANCH   4  11
TORSDOF 2
ENDMDL
MODEL 5
REMARK VINA RESULT:    -7.264      4.370      6.702
REMARK INTER + INTRA:          -8.063
REMARK INTER:                  -7.662
REMARK INTRA:                  -0.402
REMARK UNBOUND:                 0.050
REMARK SMILES CC(C)(C#N)n1cnc(-c2ccc(Cl)cc2Cl)n1
REMARK SMILES IDX 6 1 7 2 8 3 9 4 18 5 2 6 5 7 4 8 1 9 3 10 10 11 11 12 16 13
REMARK SMILES IDX 12 14 15 15 13 16 17 17 14 18
REMARK H PARENT
ROOT
ATOM      1  N   UNL     1      85.480  53.887  42.090  1.00  0.00    -0.233 N 
ATOM      2  C   UNL     1      86.167  54.467  43.111  1.00  0.00     0.222 A 
ATOM      3  N   UNL     1      87.195  53.715  43.432  1.00  0.00    -0.215 NA
ATOM      4  C   UNL     1      87.127  52.663  42.548  1.00  0.00     0.182 A 
ATOM      5  N   UNL     1      86.062  52.720  41.736  1.00  0.00    -0.149 NA
ENDROOT
BRANCH   1   6
ATOM      6  C   UNL     1      84.288  54.361  41.372  1.00  0.00     0.145 C 
ATOM      7  N   UNL     1      84.805  54.744  38.810  1.00  0.00    -0.196 NA
ATOM      8  C   UNL     1      84.573  54.578  39.937  1.00  0.00     0.092 C 
ATOM      9  C   UNL     1      83.168  53.312  41.492  1.00  0.00     0.053 C 
ATOM     10  C   UNL     1      83.809  55.698  41.971  1.00  0.00     0.053 C 
ENDBRANCH   1   6
BRANCH   4  11
ATOM     11  C   UNL     1      88.093  51.572  42.581  1.00  0.00     0.040 A 
ATOM     12  C   UNL     1      87.942  50.593  43.583  1.00  0.00     0.015 A 
ATOM     13  C   UNL     1      89.162  51.445  41.677  1.00  0.00     0.053 A 
ATOM     14  C   UNL     1      88.818  49.508  43.670  1.00  0.00     0.021 A 
ATOM     15  C   UNL     1      90.039  50.356  41.766  1.00  0.00     0.041 A 
ATOM     16  C   UNL     1      89.861  49.393  42.757  1.00  0.00     0.042 A 
ATOM     17  Cl  UNL     1      89.517  52.615  40.449  1.00  0.00    -0.083 Cl
ATOM     18  Cl  UNL     1      90.943  48.060  42.859  1.00  0.00    -0.084 Cl
ENDBRANCH   4  11
TORSDOF 2
ENDMDL
MODEL 6
REMARK VINA RESULT:    -7.257      4.171      7.018
REMARK INTER + INTRA:          -8.055
REMARK INTER:                  -7.674
REMARK INTRA:                  -0.382
REMARK UNBOUND:                 0.050
REMARK SMILES CC(C)(C#N)n1cnc(-c2ccc(Cl)cc2Cl)n1
REMARK SMILES IDX 6 1 7 2 8 3 9 4 18 5 2 6 5 7 4 8 1 9 3 10 10 11 11 12 16 13
REMARK SMILES IDX 12 14 15 15 13 16 17 17 14 18
REMARK H PARENT
ROOT
ATOM      1  N   UNL     1      85.993  54.582  43.055  1.00  0.00    -0.233 N 
ATOM      2  C   UNL     1      85.593  54.185  41.816  1.00  0.00     0.222 A 
ATOM      3  N   UNL     1      86.294  53.140  41.441  1.00  0.00    -0.215 NA
ATOM      4  C   UNL     1      87.123  52.894  42.512  1.00  0.00     0.182 A 
ATOM      5  N   UNL     1      86.989  53.787  43.503  1.00  0.00    -0.149 NA
ENDROOT
BRANCH   1   6
ATOM      6  C   UNL     1      85.489  55.673  43.899  1.00  0.00     0.145 C 
ATOM      7  N   UNL     1      84.523  54.751  46.179  1.00  0.00    -0.196 NA
ATOM      8  C   UNL     1      84.946  55.162  45.177  1.00  0.00     0.092 C 
ATOM      9  C   UNL     1      86.637  56.649  44.215  1.00  0.00     0.053 C 
ATOM     10  C   UNL     1      84.359  56.426  43.169  1.00  0.00     0.053 C 
ENDBRANCH   1   6
BRANCH   4  11
ATOM     11  C   UNL     1      88.095  51.808  42.494  1.00  0.00     0.040 A 
ATOM     12  C   UNL     1      87.889  50.728  43.375  1.00  0.00     0.015 A 
ATOM     13  C   UNL     1      89.221  51.780  41.653  1.00  0.00     0.053 A 
ATOM     14  C   UNL     1      88.768  49.642  43.404  1.00  0.00     0.021 A 
ATOM     15  C   UNL     1      90.101  50.689  41.683  1.00  0.00     0.041 A 
ATOM     16  C   UNL     1      89.868  49.627  42.554  1.00  0.00     0.042 A 
ATOM     17  Cl  UNL     1      89.644  53.073  40.580  1.00  0.00    -0.083 Cl
ATOM     18  Cl  UNL     1      90.954  48.293  42.585  1.00  0.00    -0.084 Cl
ENDBRANCH   4  11
TORSDOF 2
ENDMDL
MODEL 7
REMARK VINA RESULT:    -7.094      2.932      3.843
REMARK INTER + INTRA:          -7.874
REMARK INTER:                  -7.485
REMARK INTRA:                  -0.389
REMARK UNBOUND:                 0.050
REMARK SMILES CC(C)(C#N)n1cnc(-c2ccc(Cl)cc2Cl)n1
REMARK SMILES IDX 6 1 7 2 8 3 9 4 18 5 2 6 5 7 4 8 1 9 3 10 10 11 11 12 16 13
REMARK SMILES IDX 12 14 15 15 13 16 17 17 14 18
REMARK H PARENT
ROOT
ATOM      1  N   UNL     1      86.911  52.687  41.607  1.00  0.00    -0.233 N 
ATOM      2  C   UNL     1      85.669  53.020  41.162  1.00  0.00     0.222 A 
ATOM      3  N   UNL     1      84.967  53.521  42.152  1.00  0.00    -0.215 NA
ATOM      4  C   UNL     1      85.838  53.507  43.218  1.00  0.00     0.182 A 
ATOM      5  N   UNL     1      87.027  52.964  42.924  1.00  0.00    -0.149 NA
ENDROOT
BRANCH   1   6
ATOM      6  C   UNL     1      88.053  52.127  40.871  1.00  0.00     0.145 C 
ATOM      7  N   UNL     1      88.058  49.488  40.974  1.00  0.00    -0.196 NA
ATOM      8  C   UNL     1      88.061  50.649  40.927  1.00  0.00     0.092 C 
ATOM      9  C   UNL     1      87.971  52.557  39.395  1.00  0.00     0.053 C 
ATOM     10  C   UNL     1      89.374  52.635  41.482  1.00  0.00     0.053 C 
ENDBRANCH   1   6
BRANCH   4  11
ATOM     11  C   UNL     1      85.436  53.971  44.540  1.00  0.00     0.040 A 
ATOM     12  C   UNL     1      84.629  53.117  45.318  1.00  0.00     0.015 A 
ATOM     13  C   UNL     1      85.803  55.217  45.078  1.00  0.00     0.053 A 
ATOM     14  C   UNL     1      84.216  53.484  46.601  1.00  0.00     0.021 A 
ATOM     15  C   UNL     1      85.390  55.583  46.366  1.00  0.00     0.041 A 
ATOM     16  C   UNL     1      84.603  54.715  47.121  1.00  0.00     0.042 A 
ATOM     17  Cl  UNL     1      86.722  56.400  44.205  1.00  0.00    -0.083 Cl
ATOM     18  Cl  UNL     1      84.098  55.173  48.700  1.00  0.00    -0.084 Cl
ENDBRANCH   4  11
TORSDOF 2
ENDMDL
MODEL 8
REMARK VINA RESULT:    -7.075      4.867      7.925
REMARK INTER + INTRA:          -7.852
REMARK INTER:                  -7.903
REMARK INTRA:                   0.050
REMARK UNBOUND:                 0.050
REMARK SMILES CC(C)(C#N)n1cnc(-c2ccc(Cl)cc2Cl)n1
REMARK SMILES IDX 6 1 7 2 8 3 9 4 18 5 2 6 5 7 4 8 1 9 3 10 10 11 11 12 16 13
REMARK SMILES IDX 12 14 15 15 13 16 17 17 14 18
REMARK H PARENT
ROOT
ATOM      1  N   UNL     1      81.881  48.323  43.878  1.00  0.00    -0.233 N 
ATOM      2  C   UNL     1      82.851  49.275  43.943  1.00  0.00     0.222 A 
ATOM      3  N   UNL     1      84.031  48.707  43.851  1.00  0.00    -0.215 NA
ATOM      4  C   UNL     1      83.745  47.369  43.699  1.00  0.00     0.182 A 
ATOM      5  N   UNL     1      82.434  47.097  43.751  1.00  0.00    -0.149 NA
ENDROOT
BRANCH   1   6
ATOM      6  C   UNL     1      80.419  48.470  43.905  1.00  0.00     0.145 C 
ATOM      7  N   UNL     1      79.560  49.055  46.333  1.00  0.00    -0.196 NA
ATOM      8  C   UNL     1      79.932  48.797  45.263  1.00  0.00     0.092 C 
ATOM      9  C   UNL     1      80.001  49.606  42.953  1.00  0.00     0.053 C 
ATOM     10  C   UNL     1      79.749  47.155  43.462  1.00  0.00     0.053 C 
ENDBRANCH   1   6
BRANCH   4  11
ATOM     11  C   UNL     1      84.800  46.370  43.580  1.00  0.00     0.040 A 
ATOM     12  C   UNL     1      84.508  45.056  43.992  1.00  0.00     0.015 A 
ATOM     13  C   UNL     1      86.086  46.646  43.083  1.00  0.00     0.053 A 
ATOM     14  C   UNL     1      85.462  44.039  43.894  1.00  0.00     0.021 A 
ATOM     15  C   UNL     1      87.041  45.625  42.983  1.00  0.00     0.041 A 
ATOM     16  C   UNL     1      86.724  44.329  43.385  1.00  0.00     0.042 A 
ATOM     17  Cl  UNL     1      86.610  48.231  42.617  1.00  0.00    -0.083 Cl
ATOM     18  Cl  UNL     1      87.902  43.082  43.261  1.00  0.00    -0.084 Cl
ENDBRANCH   4  11
TORSDOF 2
ENDMDL
MODEL 9
REMARK VINA RESULT:    -7.050      1.696      2.438
REMARK INTER + INTRA:          -7.824
REMARK INTER:                  -7.440
REMARK INTRA:                  -0.385
REMARK UNBOUND:                 0.050
REMARK SMILES CC(C)(C#N)n1cnc(-c2ccc(Cl)cc2Cl)n1
REMARK SMILES IDX 6 1 7 2 8 3 9 4 18 5 2 6 5 7 4 8 1 9 3 10 10 11 11 12 16 13
REMARK SMILES IDX 12 14 15 15 13 16 17 17 14 18
REMARK H PARENT
ROOT
ATOM      1  N   UNL     1      87.616  49.807  43.800  1.00  0.00    -0.233 N 
ATOM      2  C   UNL     1      86.796  48.886  44.375  1.00  0.00     0.222 A 
ATOM      3  N   UNL     1      86.041  49.471  45.276  1.00  0.00    -0.215 NA
ATOM      4  C   UNL     1      86.412  50.795  45.212  1.00  0.00     0.182 A 
ATOM      5  N   UNL     1      87.405  51.026  44.341  1.00  0.00    -0.149 NA
ENDROOT
BRANCH   1   6
ATOM      6  C   UNL     1      88.607  49.641  42.728  1.00  0.00     0.145 C 
ATOM      7  N   UNL     1      90.840  48.569  43.645  1.00  0.00    -0.196 NA
ATOM      8  C   UNL     1      89.860  49.042  43.237  1.00  0.00     0.092 C 
ATOM      9  C   UNL     1      88.034  48.717  41.639  1.00  0.00     0.053 C 
ATOM     10  C   UNL     1      88.950  51.012  42.111  1.00  0.00     0.053 C 
ENDBRANCH   1   6
BRANCH   4  11
ATOM     11  C   UNL     1      85.814  51.800  46.082  1.00  0.00     0.040 A 
ATOM     12  C   UNL     1      86.108  51.735  47.457  1.00  0.00     0.015 A 
ATOM     13  C   UNL     1      84.962  52.822  45.627  1.00  0.00     0.053 A 
ATOM     14  C   UNL     1      85.586  52.672  48.353  1.00  0.00     0.021 A 
ATOM     15  C   UNL     1      84.440  53.762  46.527  1.00  0.00     0.041 A 
ATOM     16  C   UNL     1      84.757  53.684  47.881  1.00  0.00     0.042 A 
ATOM     17  Cl  UNL     1      84.449  52.974  43.979  1.00  0.00    -0.083 Cl
ATOM     18  Cl  UNL     1      84.111  54.841  48.978  1.00  0.00    -0.084 Cl
ENDBRANCH   4  11
TORSDOF 2
ENDMDL
