MODEL 1
REMARK VINA RESULT:    -9.167      0.000      0.000
REMARK INTER + INTRA:         -14.470
REMARK INTER:                 -13.735
REMARK INTRA:                  -0.735
REMARK UNBOUND:                -1.016
REMARK SMILES CC(C)=CCC/C(C)=C/Cc1c(O)cc2oc(-c3ccc(O)cc3)c(O)c(=O)c2c1O
REMARK SMILES IDX 8 1 7 2 9 3 6 4 5 5 4 6 2 7 1 8 3 9 10 10 11 11 12 12 30 13
REMARK SMILES IDX 14 14 29 15 15 16 27 17 16 18 28 19 25 20 17 21 13 22 31 24
REMARK SMILES IDX 26 26 18 28 19 29 24 30 20 31 23 32 21 33 22 34
REMARK H PARENT 13 23 31 25 26 27 22 35
ROOT
ATOM      1  C   UNL     1      89.850  46.138  42.504  1.00  0.00     0.039 C 
ATOM      2  C   UNL     1      88.547  46.658  41.959  1.00  0.00    -0.077 C 
ATOM      3  C   UNL     1      88.316  47.939  41.603  1.00  0.00    -0.023 C 
ENDROOT
BRANCH   2   4
ATOM      4  C   UNL     1      87.425  45.637  41.875  1.00  0.00     0.034 C 
BRANCH   4   5
ATOM      5  C   UNL     1      86.933  45.115  43.232  1.00  0.00     0.032 C 
BRANCH   5   6
ATOM      6  C   UNL     1      86.889  43.614  43.330  1.00  0.00    -0.028 C 
ATOM      7  C   UNL     1      87.779  42.803  43.933  1.00  0.00    -0.080 C 
ATOM      8  C   UNL     1      89.047  43.259  44.601  1.00  0.00     0.039 C 
ATOM      9  C   UNL     1      87.561  41.312  43.964  1.00  0.00     0.039 C 
ENDBRANCH   5   6
ENDBRANCH   4   5
ENDBRANCH   2   4
BRANCH   3  10
ATOM     10  C   UNL     1      89.269  49.107  41.612  1.00  0.00     0.070 C 
BRANCH  10  11
ATOM     11  C   UNL     1      88.604  50.390  42.062  1.00  0.00     0.040 A 
ATOM     12  C   UNL     1      88.306  51.411  41.144  1.00  0.00     0.126 A 
ATOM     13  C   UNL     1      88.298  50.610  43.416  1.00  0.00     0.137 A 
ATOM     14  C   UNL     1      87.719  52.610  41.552  1.00  0.00     0.094 A 
ATOM     15  C   UNL     1      87.709  51.813  43.828  1.00  0.00     0.111 A 
ATOM     16  C   UNL     1      87.422  52.806  42.899  1.00  0.00     0.146 A 
ATOM     17  C   UNL     1      87.378  52.071  45.232  1.00  0.00     0.238 C 
ATOM     18  O   UNL     1      86.848  54.006  43.236  1.00  0.00    -0.452 OA
ATOM     19  O   UNL     1      87.606  51.250  46.117  1.00  0.00    -0.285 OA
ATOM     20  C   UNL     1      86.749  53.370  45.562  1.00  0.00     0.208 C 
ATOM     21  C   UNL     1      86.520  54.245  44.566  1.00  0.00     0.180 C 
BRANCH  12  22
ATOM     22  O   UNL     1      88.594  51.220  39.821  1.00  0.00    -0.507 OA
ATOM     23  H   UNL     1      88.965  52.035  39.447  1.00  0.00     0.293 HD
ENDBRANCH  12  22
BRANCH  13  24
ATOM     24  O   UNL     1      88.597  49.613  44.313  1.00  0.00    -0.507 OA
ATOM     25  H   UNL     1      88.736  48.773  43.823  1.00  0.00     0.293 HD
ENDBRANCH  13  24
BRANCH  20  26
ATOM     26  O   UNL     1      86.453  53.607  46.892  1.00  0.00    -0.502 OA
ATOM     27  H   UNL     1      86.338  52.720  47.293  1.00  0.00     0.293 HD
ENDBRANCH  20  26
BRANCH  21  28
ATOM     28  C   UNL     1      85.911  55.576  44.777  1.00  0.00     0.021 A 
ATOM     29  C   UNL     1      86.446  56.698  44.125  1.00  0.00     0.016 A 
ATOM     30  C   UNL     1      84.778  55.749  45.587  1.00  0.00     0.016 A 
ATOM     31  C   UNL     1      85.872  57.961  44.289  1.00  0.00     0.047 A 
ATOM     32  C   UNL     1      84.203  57.013  45.754  1.00  0.00     0.047 A 
ATOM     33  C   UNL     1      84.757  58.108  45.104  1.00  0.00     0.115 A 
BRANCH  33  34
ATOM     34  O   UNL     1      84.229  59.358  45.238  1.00  0.00    -0.508 OA
ATOM     35  H   UNL     1      83.489  59.315  45.866  1.00  0.00     0.293 HD
ENDBRANCH  33  34
ENDBRANCH  21  28
ENDBRANCH  10  11
ENDBRANCH   3  10
TORSDOF 10
ENDMDL
MODEL 2
REMARK VINA RESULT:    -9.086      4.585      9.447
REMARK INTER + INTRA:         -14.352
REMARK INTER:                 -12.968
REMARK INTRA:                  -1.385
REMARK UNBOUND:                -1.016
REMARK SMILES CC(C)=CCC/C(C)=C/Cc1c(O)cc2oc(-c3ccc(O)cc3)c(O)c(=O)c2c1O
REMARK SMILES IDX 8 1 7 2 9 3 6 4 5 5 4 6 2 7 1 8 3 9 10 10 11 11 12 12 30 13
REMARK SMILES IDX 14 14 29 15 15 16 27 17 16 18 28 19 25 20 17 21 13 22 31 24
REMARK SMILES IDX 26 26 18 28 19 29 24 30 20 31 23 32 21 33 22 34
REMARK H PARENT 13 23 31 25 26 27 22 35
ROOT
ATOM      1  C   UNL     1      84.539  57.093  43.133  1.00  0.00     0.039 C 
ATOM      2  C   UNL     1      85.625  56.967  44.167  1.00  0.00    -0.077 C 
ATOM      3  C   UNL     1      86.544  55.979  44.205  1.00  0.00    -0.023 C 
ENDROOT
BRANCH   2   4
ATOM      4  C   UNL     1      85.606  58.022  45.260  1.00  0.00     0.034 C 
BRANCH   4   5
ATOM      5  C   UNL     1      84.414  57.925  46.222  1.00  0.00     0.032 C 
BRANCH   5   6
ATOM      6  C   UNL     1      83.925  56.520  46.450  1.00  0.00    -0.028 C 
ATOM      7  C   UNL     1      84.560  55.523  47.095  1.00  0.00    -0.080 C 
ATOM      8  C   UNL     1      85.940  55.619  47.685  1.00  0.00     0.039 C 
ATOM      9  C   UNL     1      83.906  54.176  47.260  1.00  0.00     0.039 C 
ENDBRANCH   5   6
ENDBRANCH   4   5
ENDBRANCH   2   4
BRANCH   3  10
ATOM     10  C   UNL     1      86.741  54.838  43.240  1.00  0.00     0.070 C 
BRANCH  10  11
ATOM     11  C   UNL     1      85.813  53.676  43.525  1.00  0.00     0.040 A 
ATOM     12  C   UNL     1      86.063  52.794  44.589  1.00  0.00     0.126 A 
ATOM     13  C   UNL     1      84.695  53.428  42.710  1.00  0.00     0.137 A 
ATOM     14  C   UNL     1      85.230  51.703  44.843  1.00  0.00     0.094 A 
ATOM     15  C   UNL     1      83.857  52.333  42.963  1.00  0.00     0.111 A 
ATOM     16  C   UNL     1      84.126  51.477  44.025  1.00  0.00     0.146 A 
ATOM     17  C   UNL     1      82.684  52.048  42.133  1.00  0.00     0.238 C 
ATOM     18  O   UNL     1      83.348  50.388  44.326  1.00  0.00    -0.452 OA
ATOM     19  O   UNL     1      82.380  52.750  41.171  1.00  0.00    -0.285 OA
ATOM     20  C   UNL     1      81.858  50.872  42.490  1.00  0.00     0.208 C 
ATOM     21  C   UNL     1      82.226  50.126  43.548  1.00  0.00     0.180 C 
BRANCH  12  22
ATOM     22  O   UNL     1      87.145  53.016  45.396  1.00  0.00    -0.507 OA
ATOM     23  H   UNL     1      87.888  53.341  44.862  1.00  0.00     0.293 HD
ENDBRANCH  12  22
BRANCH  13  24
ATOM     24  O   UNL     1      84.456  54.287  41.665  1.00  0.00    -0.507 OA
ATOM     25  H   UNL     1      84.404  55.205  42.012  1.00  0.00     0.293 HD
ENDBRANCH  13  24
BRANCH  20  26
ATOM     26  O   UNL     1      80.761  50.607  41.692  1.00  0.00    -0.502 OA
ATOM     27  H   UNL     1      80.758  51.314  41.013  1.00  0.00     0.293 HD
ENDBRANCH  20  26
BRANCH  21  28
ATOM     28  C   UNL     1      81.488  48.923  43.990  1.00  0.00     0.021 A 
ATOM     29  C   UNL     1      82.034  47.649  43.766  1.00  0.00     0.016 A 
ATOM     30  C   UNL     1      80.263  49.017  44.669  1.00  0.00     0.016 A 
ATOM     31  C   UNL     1      81.367  46.500  44.197  1.00  0.00     0.047 A 
ATOM     32  C   UNL     1      79.593  47.868  45.100  1.00  0.00     0.047 A 
ATOM     33  C   UNL     1      80.151  46.618  44.858  1.00  0.00     0.115 A 
BRANCH  33  34
ATOM     34  O   UNL     1      79.533  45.473  45.261  1.00  0.00    -0.508 OA
ATOM     35  H   UNL     1      79.959  44.719  44.820  1.00  0.00     0.293 HD
ENDBRANCH  33  34
ENDBRANCH  21  28
ENDBRANCH  10  11
ENDBRANCH   3  10
TORSDOF 10
ENDMDL
MODEL 3
REMARK VINA RESULT:    -9.064      1.185      2.037
REMARK INTER + INTRA:         -14.320
REMARK INTER:                 -13.246
REMARK INTRA:                  -1.074
REMARK UNBOUND:                -1.016
REMARK SMILES CC(C)=CCC/C(C)=C/Cc1c(O)cc2oc(-c3ccc(O)cc3)c(O)c(=O)c2c1O
REMARK SMILES IDX 8 1 7 2 9 3 6 4 5 5 4 6 2 7 1 8 3 9 10 10 11 11 12 12 30 13
REMARK SMILES IDX 14 14 29 15 15 16 27 17 16 18 28 19 25 20 17 21 13 22 31 24
REMARK SMILES IDX 26 26 18 28 19 29 24 30 20 31 23 32 21 33 22 34
REMARK H PARENT 13 23 31 25 26 27 22 35
ROOT
ATOM      1  C   UNL     1      89.987  46.135  42.388  1.00  0.00     0.039 C 
ATOM      2  C   UNL     1      88.627  46.632  41.979  1.00  0.00    -0.077 C 
ATOM      3  C   UNL     1      88.335  47.912  41.665  1.00  0.00    -0.023 C 
ENDROOT
BRANCH   2   4
ATOM      4  C   UNL     1      87.524  45.588  41.992  1.00  0.00     0.034 C 
BRANCH   4   5
ATOM      5  C   UNL     1      86.736  45.506  43.307  1.00  0.00     0.032 C 
BRANCH   5   6
ATOM      6  C   UNL     1      85.266  45.796  43.158  1.00  0.00    -0.028 C 
ATOM      7  C   UNL     1      84.639  46.975  43.328  1.00  0.00    -0.080 C 
ATOM      8  C   UNL     1      85.307  48.252  43.759  1.00  0.00     0.039 C 
ATOM      9  C   UNL     1      83.154  47.095  43.104  1.00  0.00     0.039 C 
ENDBRANCH   5   6
ENDBRANCH   4   5
ENDBRANCH   2   4
BRANCH   3  10
ATOM     10  C   UNL     1      89.260  49.100  41.595  1.00  0.00     0.070 C 
BRANCH  10  11
ATOM     11  C   UNL     1      88.592  50.378  42.058  1.00  0.00     0.040 A 
ATOM     12  C   UNL     1      88.305  51.414  41.154  1.00  0.00     0.126 A 
ATOM     13  C   UNL     1      88.272  50.576  43.413  1.00  0.00     0.137 A 
ATOM     14  C   UNL     1      87.716  52.607  41.574  1.00  0.00     0.094 A 
ATOM     15  C   UNL     1      87.681  51.774  43.838  1.00  0.00     0.111 A 
ATOM     16  C   UNL     1      87.405  52.782  42.921  1.00  0.00     0.146 A 
ATOM     17  C   UNL     1      87.335  52.011  45.242  1.00  0.00     0.238 C 
ATOM     18  O   UNL     1      86.830  53.978  43.271  1.00  0.00    -0.452 OA
ATOM     19  O   UNL     1      87.553  51.176  46.116  1.00  0.00    -0.285 OA
ATOM     20  C   UNL     1      86.705  53.306  45.585  1.00  0.00     0.208 C 
ATOM     21  C   UNL     1      86.488  54.197  44.600  1.00  0.00     0.180 C 
BRANCH  12  22
ATOM     22  O   UNL     1      88.607  51.242  39.831  1.00  0.00    -0.507 OA
ATOM     23  H   UNL     1      89.565  51.332  39.701  1.00  0.00     0.293 HD
ENDBRANCH  12  22
BRANCH  13  24
ATOM     24  O   UNL     1      88.560  49.566  44.297  1.00  0.00    -0.507 OA
ATOM     25  H   UNL     1      88.344  49.866  45.207  1.00  0.00     0.293 HD
ENDBRANCH  13  24
BRANCH  20  26
ATOM     26  O   UNL     1      86.395  53.523  46.915  1.00  0.00    -0.502 OA
ATOM     27  H   UNL     1      87.247  53.746  47.346  1.00  0.00     0.293 HD
ENDBRANCH  20  26
BRANCH  21  28
ATOM     28  C   UNL     1      85.879  55.526  44.825  1.00  0.00     0.021 A 
ATOM     29  C   UNL     1      86.413  56.655  44.185  1.00  0.00     0.016 A 
ATOM     30  C   UNL     1      84.747  55.690  45.638  1.00  0.00     0.016 A 
ATOM     31  C   UNL     1      85.840  57.916  44.363  1.00  0.00     0.047 A 
ATOM     32  C   UNL     1      84.171  56.952  45.819  1.00  0.00     0.047 A 
ATOM     33  C   UNL     1      84.725  58.054  45.180  1.00  0.00     0.115 A 
BRANCH  33  34
ATOM     34  O   UNL     1      84.197  59.302  45.328  1.00  0.00    -0.508 OA
ATOM     35  H   UNL     1      83.619  59.485  44.569  1.00  0.00     0.293 HD
ENDBRANCH  33  34
ENDBRANCH  21  28
ENDBRANCH  10  11
ENDBRANCH   3  10
TORSDOF 10
ENDMDL
MODEL 4
REMARK VINA RESULT:    -8.971      2.927      9.166
REMARK INTER + INTRA:         -14.183
REMARK INTER:                 -13.088
REMARK INTRA:                  -1.095
REMARK UNBOUND:                -1.016
REMARK SMILES CC(C)=CCC/C(C)=C/Cc1c(O)cc2oc(-c3ccc(O)cc3)c(O)c(=O)c2c1O
REMARK SMILES IDX 8 1 7 2 9 3 6 4 5 5 4 6 2 7 1 8 3 9 10 10 11 11 12 12 30 13
REMARK SMILES IDX 14 14 29 15 15 16 27 17 16 18 28 19 25 20 17 21 13 22 31 24
REMARK SMILES IDX 26 26 18 28 19 29 24 30 20 31 23 32 21 33 22 34
REMARK H PARENT 13 23 31 25 26 27 22 35
ROOT
ATOM      1  C   UNL     1      87.098  56.050  44.221  1.00  0.00     0.039 C 
ATOM      2  C   UNL     1      85.734  55.647  44.712  1.00  0.00    -0.077 C 
ATOM      3  C   UNL     1      84.851  54.902  44.014  1.00  0.00    -0.023 C 
ENDROOT
BRANCH   2   4
ATOM      4  C   UNL     1      85.348  56.194  46.076  1.00  0.00     0.034 C 
BRANCH   4   5
ATOM      5  C   UNL     1      86.279  55.771  47.221  1.00  0.00     0.032 C 
BRANCH   5   6
ATOM      6  C   UNL     1      85.739  54.647  48.064  1.00  0.00    -0.028 C 
ATOM      7  C   UNL     1      85.833  53.324  47.831  1.00  0.00    -0.080 C 
ATOM      8  C   UNL     1      86.477  52.707  46.620  1.00  0.00     0.039 C 
ATOM      9  C   UNL     1      85.258  52.329  48.805  1.00  0.00     0.039 C 
ENDBRANCH   5   6
ENDBRANCH   4   5
ENDBRANCH   2   4
BRANCH   3  10
ATOM     10  C   UNL     1      85.017  54.270  42.656  1.00  0.00     0.070 C 
BRANCH  10  11
ATOM     11  C   UNL     1      85.425  52.814  42.744  1.00  0.00     0.040 A 
ATOM     12  C   UNL     1      86.727  52.406  42.414  1.00  0.00     0.126 A 
ATOM     13  C   UNL     1      84.499  51.827  43.124  1.00  0.00     0.137 A 
ATOM     14  C   UNL     1      87.106  51.063  42.463  1.00  0.00     0.094 A 
ATOM     15  C   UNL     1      84.877  50.478  43.175  1.00  0.00     0.111 A 
ATOM     16  C   UNL     1      86.174  50.101  42.846  1.00  0.00     0.146 A 
ATOM     17  C   UNL     1      83.936  49.425  43.568  1.00  0.00     0.238 C 
ATOM     18  O   UNL     1      86.607  48.799  42.873  1.00  0.00    -0.452 OA
ATOM     19  O   UNL     1      82.770  49.672  43.866  1.00  0.00    -0.285 OA
ATOM     20  C   UNL     1      84.437  48.032  43.598  1.00  0.00     0.208 C 
ATOM     21  C   UNL     1      85.719  47.803  43.260  1.00  0.00     0.180 C 
BRANCH  12  22
ATOM     22  O   UNL     1      87.645  53.349  42.041  1.00  0.00    -0.507 OA
ATOM     23  H   UNL     1      87.209  54.213  41.960  1.00  0.00     0.293 HD
ENDBRANCH  12  22
BRANCH  13  24
ATOM     24  O   UNL     1      83.224  52.227  43.439  1.00  0.00    -0.507 OA
ATOM     25  H   UNL     1      83.220  53.198  43.584  1.00  0.00     0.293 HD
ENDBRANCH  13  24
BRANCH  20  26
ATOM     26  O   UNL     1      83.536  47.047  43.959  1.00  0.00    -0.502 OA
ATOM     27  H   UNL     1      83.889  46.667  44.792  1.00  0.00     0.293 HD
ENDBRANCH  20  26
BRANCH  21  28
ATOM     28  C   UNL     1      86.325  46.454  43.241  1.00  0.00     0.021 A 
ATOM     29  C   UNL     1      87.452  46.208  42.441  1.00  0.00     0.016 A 
ATOM     30  C   UNL     1      85.827  45.409  44.036  1.00  0.00     0.016 A 
ATOM     31  C   UNL     1      88.057  44.949  42.426  1.00  0.00     0.047 A 
ATOM     32  C   UNL     1      86.429  44.147  44.021  1.00  0.00     0.047 A 
ATOM     33  C   UNL     1      87.539  43.929  43.214  1.00  0.00     0.115 A 
BRANCH  33  34
ATOM     34  O   UNL     1      88.158  42.715  43.169  1.00  0.00    -0.508 OA
ATOM     35  H   UNL     1      87.590  42.061  43.609  1.00  0.00     0.293 HD
ENDBRANCH  33  34
ENDBRANCH  21  28
ENDBRANCH  10  11
ENDBRANCH   3  10
TORSDOF 10
ENDMDL
MODEL 5
REMARK VINA RESULT:    -8.693      2.647      3.919
REMARK INTER + INTRA:         -13.775
REMARK INTER:                 -12.899
REMARK INTRA:                  -0.876
REMARK UNBOUND:                -1.016
REMARK SMILES CC(C)=CCC/C(C)=C/Cc1c(O)cc2oc(-c3ccc(O)cc3)c(O)c(=O)c2c1O
REMARK SMILES IDX 8 1 7 2 9 3 6 4 5 5 4 6 2 7 1 8 3 9 10 10 11 11 12 12 30 13
REMARK SMILES IDX 14 14 29 15 15 16 27 17 16 18 28 19 25 20 17 21 13 22 31 24
REMARK SMILES IDX 26 26 18 28 19 29 24 30 20 31 23 32 21 33 22 34
REMARK H PARENT 13 23 31 25 26 27 22 35
ROOT
ATOM      1  C   UNL     1      85.716  44.463  44.074  1.00  0.00     0.039 C 
ATOM      2  C   UNL     1      85.910  45.460  42.964  1.00  0.00    -0.077 C 
ATOM      3  C   UNL     1      85.134  46.545  42.756  1.00  0.00    -0.023 C 
ENDROOT
BRANCH   2   4
ATOM      4  C   UNL     1      87.042  45.146  42.000  1.00  0.00     0.034 C 
BRANCH   4   5
ATOM      5  C   UNL     1      88.400  45.746  42.391  1.00  0.00     0.032 C 
BRANCH   5   6
ATOM      6  C   UNL     1      88.587  47.172  41.947  1.00  0.00    -0.028 C 
ATOM      7  C   UNL     1      89.643  47.974  42.183  1.00  0.00    -0.080 C 
ATOM      8  C   UNL     1      90.849  47.595  42.998  1.00  0.00     0.039 C 
ATOM      9  C   UNL     1      89.680  49.376  41.633  1.00  0.00     0.039 C 
ENDBRANCH   5   6
ENDBRANCH   4   5
ENDBRANCH   2   4
BRANCH   3  10
ATOM     10  C   UNL     1      83.967  47.039  43.572  1.00  0.00     0.070 C 
BRANCH  10  11
ATOM     11  C   UNL     1      83.994  48.540  43.765  1.00  0.00     0.040 A 
ATOM     12  C   UNL     1      83.009  49.362  43.192  1.00  0.00     0.126 A 
ATOM     13  C   UNL     1      85.026  49.157  44.494  1.00  0.00     0.137 A 
ATOM     14  C   UNL     1      83.040  50.750  43.338  1.00  0.00     0.094 A 
ATOM     15  C   UNL     1      85.059  50.550  44.644  1.00  0.00     0.111 A 
ATOM     16  C   UNL     1      84.070  51.340  44.068  1.00  0.00     0.146 A 
ATOM     17  C   UNL     1      86.120  51.222  45.398  1.00  0.00     0.238 C 
ATOM     18  O   UNL     1      84.045  52.707  44.174  1.00  0.00    -0.452 OA
ATOM     19  O   UNL     1      87.035  50.599  45.931  1.00  0.00    -0.285 OA
ATOM     20  C   UNL     1      86.059  52.698  45.504  1.00  0.00     0.208 C 
ATOM     21  C   UNL     1      85.043  53.344  44.903  1.00  0.00     0.180 C 
BRANCH  12  22
ATOM     22  O   UNL     1      81.995  48.784  42.478  1.00  0.00    -0.507 OA
ATOM     23  H   UNL     1      82.227  48.771  41.535  1.00  0.00     0.293 HD
ENDBRANCH  12  22
BRANCH  13  24
ATOM     24  O   UNL     1      85.991  48.353  45.048  1.00  0.00    -0.507 OA
ATOM     25  H   UNL     1      86.793  48.379  44.481  1.00  0.00     0.293 HD
ENDBRANCH  13  24
BRANCH  20  26
ATOM     26  O   UNL     1      87.072  53.321  46.209  1.00  0.00    -0.502 OA
ATOM     27  H   UNL     1      86.856  54.277  46.183  1.00  0.00     0.293 HD
ENDBRANCH  20  26
BRANCH  21  28
ATOM     28  C   UNL     1      84.886  54.814  44.929  1.00  0.00     0.021 A 
ATOM     29  C   UNL     1      84.491  55.451  46.116  1.00  0.00     0.016 A 
ATOM     30  C   UNL     1      85.161  55.606  43.803  1.00  0.00     0.016 A 
ATOM     31  C   UNL     1      84.361  56.841  46.172  1.00  0.00     0.047 A 
ATOM     32  C   UNL     1      85.030  56.998  43.856  1.00  0.00     0.047 A 
ATOM     33  C   UNL     1      84.629  57.602  45.041  1.00  0.00     0.115 A 
BRANCH  33  34
ATOM     34  O   UNL     1      84.489  58.954  45.138  1.00  0.00    -0.508 OA
ATOM     35  H   UNL     1      83.969  59.267  44.379  1.00  0.00     0.293 HD
ENDBRANCH  33  34
ENDBRANCH  21  28
ENDBRANCH  10  11
ENDBRANCH   3  10
TORSDOF 10
ENDMDL
MODEL 6
REMARK VINA RESULT:    -8.562      1.280      2.513
REMARK INTER + INTRA:         -13.582
REMARK INTER:                 -12.726
REMARK INTRA:                  -0.857
REMARK UNBOUND:                -1.016
REMARK SMILES CC(C)=CCC/C(C)=C/Cc1c(O)cc2oc(-c3ccc(O)cc3)c(O)c(=O)c2c1O
REMARK SMILES IDX 8 1 7 2 9 3 6 4 5 5 4 6 2 7 1 8 3 9 10 10 11 11 12 12 30 13
REMARK SMILES IDX 14 14 29 15 15 16 27 17 16 18 28 19 25 20 17 21 13 22 31 24
REMARK SMILES IDX 26 26 18 28 19 29 24 30 20 31 23 32 21 33 22 34
REMARK H PARENT 13 23 31 25 26 27 22 35
ROOT
ATOM      1  C   UNL     1      88.689  45.864  41.801  1.00  0.00     0.039 C 
ATOM      2  C   UNL     1      87.428  46.521  42.293  1.00  0.00    -0.077 C 
ATOM      3  C   UNL     1      87.300  47.834  42.576  1.00  0.00    -0.023 C 
ENDROOT
BRANCH   2   4
ATOM      4  C   UNL     1      86.256  45.581  42.526  1.00  0.00     0.034 C 
BRANCH   4   5
ATOM      5  C   UNL     1      86.273  44.863  43.882  1.00  0.00     0.032 C 
BRANCH   5   6
ATOM      6  C   UNL     1      86.495  43.377  43.783  1.00  0.00    -0.028 C 
ATOM      7  C   UNL     1      87.646  42.703  43.970  1.00  0.00    -0.080 C 
ATOM      8  C   UNL     1      88.975  43.337  44.277  1.00  0.00     0.039 C 
ATOM      9  C   UNL     1      87.683  41.201  43.863  1.00  0.00     0.039 C 
ENDBRANCH   5   6
ENDBRANCH   4   5
ENDBRANCH   2   4
BRANCH   3  10
ATOM     10  C   UNL     1      88.322  48.933  42.429  1.00  0.00     0.070 C 
BRANCH  10  11
ATOM     11  C   UNL     1      87.832  50.252  42.988  1.00  0.00     0.040 A 
ATOM     12  C   UNL     1      87.921  50.535  44.361  1.00  0.00     0.126 A 
ATOM     13  C   UNL     1      87.241  51.217  42.152  1.00  0.00     0.137 A 
ATOM     14  C   UNL     1      87.446  51.736  44.891  1.00  0.00     0.094 A 
ATOM     15  C   UNL     1      86.764  52.423  42.682  1.00  0.00     0.111 A 
ATOM     16  C   UNL     1      86.867  52.679  44.045  1.00  0.00     0.146 A 
ATOM     17  C   UNL     1      86.144  53.448  41.838  1.00  0.00     0.238 C 
ATOM     18  O   UNL     1      86.418  53.837  44.627  1.00  0.00    -0.452 OA
ATOM     19  O   UNL     1      86.007  53.298  40.626  1.00  0.00    -0.285 OA
ATOM     20  C   UNL     1      85.681  54.691  42.494  1.00  0.00     0.208 C 
ATOM     21  C   UNL     1      85.844  54.816  43.824  1.00  0.00     0.180 C 
BRANCH  12  22
ATOM     22  O   UNL     1      88.492  49.612  45.193  1.00  0.00    -0.507 OA
ATOM     23  H   UNL     1      88.070  48.748  45.059  1.00  0.00     0.293 HD
ENDBRANCH  12  22
BRANCH  13  24
ATOM     24  O   UNL     1      87.148  50.935  40.811  1.00  0.00    -0.507 OA
ATOM     25  H   UNL     1      87.256  49.968  40.679  1.00  0.00     0.293 HD
ENDBRANCH  13  24
BRANCH  20  26
ATOM     26  O   UNL     1      85.087  55.645  41.688  1.00  0.00    -0.502 OA
ATOM     27  H   UNL     1      84.214  55.272  41.445  1.00  0.00     0.293 HD
ENDBRANCH  20  26
BRANCH  21  28
ATOM     28  C   UNL     1      85.409  56.004  44.589  1.00  0.00     0.021 A 
ATOM     29  C   UNL     1      85.850  57.280  44.204  1.00  0.00     0.016 A 
ATOM     30  C   UNL     1      84.527  55.900  45.676  1.00  0.00     0.016 A 
ATOM     31  C   UNL     1      85.431  58.419  44.895  1.00  0.00     0.047 A 
ATOM     32  C   UNL     1      84.108  57.039  46.371  1.00  0.00     0.047 A 
ATOM     33  C   UNL     1      84.566  58.289  45.974  1.00  0.00     0.115 A 
BRANCH  33  34
ATOM     34  O   UNL     1      84.184  59.426  46.622  1.00  0.00    -0.508 OA
ATOM     35  H   UNL     1      84.581  60.188  46.170  1.00  0.00     0.293 HD
ENDBRANCH  33  34
ENDBRANCH  21  28
ENDBRANCH  10  11
ENDBRANCH   3  10
TORSDOF 10
ENDMDL
MODEL 7
REMARK VINA RESULT:    -8.544      2.595      9.658
REMARK INTER + INTRA:         -13.557
REMARK INTER:                 -12.698
REMARK INTRA:                  -0.859
REMARK UNBOUND:                -1.016
REMARK SMILES CC(C)=CCC/C(C)=C/Cc1c(O)cc2oc(-c3ccc(O)cc3)c(O)c(=O)c2c1O
REMARK SMILES IDX 8 1 7 2 9 3 6 4 5 5 4 6 2 7 1 8 3 9 10 10 11 11 12 12 30 13
REMARK SMILES IDX 14 14 29 15 15 16 27 17 16 18 28 19 25 20 17 21 13 22 31 24
REMARK SMILES IDX 26 26 18 28 19 29 24 30 20 31 23 32 21 33 22 34
REMARK H PARENT 13 23 31 25 26 27 22 35
ROOT
ATOM      1  C   UNL     1      84.386  56.510  43.211  1.00  0.00     0.039 C 
ATOM      2  C   UNL     1      85.505  55.670  43.764  1.00  0.00    -0.077 C 
ATOM      3  C   UNL     1      85.754  54.390  43.416  1.00  0.00    -0.023 C 
ENDROOT
BRANCH   2   4
ATOM      4  C   UNL     1      86.354  56.341  44.830  1.00  0.00     0.034 C 
BRANCH   4   5
ATOM      5  C   UNL     1      86.864  55.398  45.929  1.00  0.00     0.032 C 
BRANCH   5   6
ATOM      6  C   UNL     1      85.945  55.291  47.116  1.00  0.00    -0.028 C 
ATOM      7  C   UNL     1      85.316  54.191  47.572  1.00  0.00    -0.080 C 
ATOM      8  C   UNL     1      85.381  52.832  46.930  1.00  0.00     0.039 C 
ATOM      9  C   UNL     1      84.451  54.255  48.804  1.00  0.00     0.039 C 
ENDBRANCH   5   6
ENDBRANCH   4   5
ENDBRANCH   2   4
BRANCH   3  10
ATOM     10  C   UNL     1      85.043  53.535  42.399  1.00  0.00     0.070 C 
BRANCH  10  11
ATOM     11  C   UNL     1      85.331  52.060  42.585  1.00  0.00     0.040 A 
ATOM     12  C   UNL     1      84.551  51.273  43.448  1.00  0.00     0.126 A 
ATOM     13  C   UNL     1      86.411  51.445  41.926  1.00  0.00     0.137 A 
ATOM     14  C   UNL     1      84.826  49.919  43.650  1.00  0.00     0.094 A 
ATOM     15  C   UNL     1      86.688  50.086  42.126  1.00  0.00     0.111 A 
ATOM     16  C   UNL     1      85.898  49.330  42.985  1.00  0.00     0.146 A 
ATOM     17  C   UNL     1      87.804  49.417  41.453  1.00  0.00     0.238 C 
ATOM     18  O   UNL     1      86.116  47.997  43.226  1.00  0.00    -0.452 OA
ATOM     19  O   UNL     1      88.556  50.014  40.686  1.00  0.00    -0.285 OA
ATOM     20  C   UNL     1      88.007  47.975  41.726  1.00  0.00     0.208 C 
ATOM     21  C   UNL     1      87.166  47.358  42.577  1.00  0.00     0.180 C 
BRANCH  12  22
ATOM     22  O   UNL     1      83.496  51.849  44.100  1.00  0.00    -0.507 OA
ATOM     23  H   UNL     1      83.546  52.815  44.011  1.00  0.00     0.293 HD
ENDBRANCH  12  22
BRANCH  13  24
ATOM     24  O   UNL     1      87.177  52.218  41.088  1.00  0.00    -0.507 OA
ATOM     25  H   UNL     1      87.271  53.115  41.477  1.00  0.00     0.293 HD
ENDBRANCH  13  24
BRANCH  20  26
ATOM     26  O   UNL     1      89.071  47.358  41.095  1.00  0.00    -0.502 OA
ATOM     27  H   UNL     1      89.859  47.888  41.339  1.00  0.00     0.293 HD
ENDBRANCH  20  26
BRANCH  21  28
ATOM     28  C   UNL     1      87.278  45.928  42.935  1.00  0.00     0.021 A 
ATOM     29  C   UNL     1      86.184  45.266  43.513  1.00  0.00     0.016 A 
ATOM     30  C   UNL     1      88.445  45.192  42.676  1.00  0.00     0.016 A 
ATOM     31  C   UNL     1      86.258  43.909  43.837  1.00  0.00     0.047 A 
ATOM     32  C   UNL     1      88.523  43.833  43.001  1.00  0.00     0.047 A 
ATOM     33  C   UNL     1      87.427  43.205  43.580  1.00  0.00     0.115 A 
BRANCH  33  34
ATOM     34  O   UNL     1      87.459  41.884  43.912  1.00  0.00    -0.508 OA
ATOM     35  H   UNL     1      88.049  41.423  43.293  1.00  0.00     0.293 HD
ENDBRANCH  33  34
ENDBRANCH  21  28
ENDBRANCH  10  11
ENDBRANCH   3  10
TORSDOF 10
ENDMDL
MODEL 8
REMARK VINA RESULT:    -8.479      3.466      9.909
REMARK INTER + INTRA:         -13.460
REMARK INTER:                 -12.083
REMARK INTRA:                  -1.378
REMARK UNBOUND:                -1.016
REMARK SMILES CC(C)=CCC/C(C)=C/Cc1c(O)cc2oc(-c3ccc(O)cc3)c(O)c(=O)c2c1O
REMARK SMILES IDX 8 1 7 2 9 3 6 4 5 5 4 6 2 7 1 8 3 9 10 10 11 11 12 12 30 13
REMARK SMILES IDX 14 14 29 15 15 16 27 17 16 18 28 19 25 20 17 21 13 22 31 24
REMARK SMILES IDX 26 26 18 28 19 29 24 30 20 31 23 32 21 33 22 34
REMARK H PARENT 13 23 31 25 26 27 22 35
ROOT
ATOM      1  C   UNL     1      84.119  56.332  45.604  1.00  0.00     0.039 C 
ATOM      2  C   UNL     1      84.695  55.518  44.476  1.00  0.00    -0.077 C 
ATOM      3  C   UNL     1      84.931  54.190  44.525  1.00  0.00    -0.023 C 
ENDROOT
BRANCH   2   4
ATOM      4  C   UNL     1      85.074  56.308  43.235  1.00  0.00     0.034 C 
BRANCH   4   5
ATOM      5  C   UNL     1      84.795  55.587  41.909  1.00  0.00     0.032 C 
BRANCH   5   6
ATOM      6  C   UNL     1      83.341  55.280  41.675  1.00  0.00    -0.028 C 
ATOM      7  C   UNL     1      82.785  54.082  41.412  1.00  0.00    -0.080 C 
ATOM      8  C   UNL     1      83.547  52.795  41.253  1.00  0.00     0.039 C 
ATOM      9  C   UNL     1      81.295  53.948  41.236  1.00  0.00     0.039 C 
ENDBRANCH   5   6
ENDBRANCH   4   5
ENDBRANCH   2   4
BRANCH   3  10
ATOM     10  C   UNL     1      84.645  53.222  45.644  1.00  0.00     0.070 C 
BRANCH  10  11
ATOM     11  C   UNL     1      85.081  51.811  45.311  1.00  0.00     0.040 A 
ATOM     12  C   UNL     1      86.354  51.342  45.676  1.00  0.00     0.126 A 
ATOM     13  C   UNL     1      84.238  50.943  44.595  1.00  0.00     0.137 A 
ATOM     14  C   UNL     1      86.779  50.053  45.348  1.00  0.00     0.094 A 
ATOM     15  C   UNL     1      84.661  49.649  44.265  1.00  0.00     0.111 A 
ATOM     16  C   UNL     1      85.926  49.209  44.641  1.00  0.00     0.146 A 
ATOM     17  C   UNL     1      83.806  48.721  43.522  1.00  0.00     0.238 C 
ATOM     18  O   UNL     1      86.402  47.956  44.348  1.00  0.00    -0.452 OA
ATOM     19  O   UNL     1      82.678  49.033  43.145  1.00  0.00    -0.285 OA
ATOM     20  C   UNL     1      84.344  47.372  43.231  1.00  0.00     0.208 C 
ATOM     21  C   UNL     1      85.584  47.070  43.656  1.00  0.00     0.180 C 
BRANCH  12  22
ATOM     22  O   UNL     1      87.192  52.169  46.372  1.00  0.00    -0.507 OA
ATOM     23  H   UNL     1      88.000  51.687  46.611  1.00  0.00     0.293 HD
ENDBRANCH  12  22
BRANCH  13  24
ATOM     24  O   UNL     1      82.997  51.406  44.233  1.00  0.00    -0.507 OA
ATOM     25  H   UNL     1      82.528  50.705  43.729  1.00  0.00     0.293 HD
ENDBRANCH  13  24
BRANCH  20  26
ATOM     26  O   UNL     1      83.531  46.510  42.518  1.00  0.00    -0.502 OA
ATOM     27  H   UNL     1      83.290  46.997  41.703  1.00  0.00     0.293 HD
ENDBRANCH  20  26
BRANCH  21  28
ATOM     28  C   UNL     1      86.231  45.762  43.413  1.00  0.00     0.021 A 
ATOM     29  C   UNL     1      85.811  44.633  44.134  1.00  0.00     0.016 A 
ATOM     30  C   UNL     1      87.235  45.604  42.445  1.00  0.00     0.016 A 
ATOM     31  C   UNL     1      86.389  43.383  43.903  1.00  0.00     0.047 A 
ATOM     32  C   UNL     1      87.816  44.353  42.213  1.00  0.00     0.047 A 
ATOM     33  C   UNL     1      87.388  43.253  42.947  1.00  0.00     0.115 A 
BRANCH  33  34
ATOM     34  O   UNL     1      87.926  42.016  42.754  1.00  0.00    -0.508 OA
ATOM     35  H   UNL     1      88.888  42.110  42.649  1.00  0.00     0.293 HD
ENDBRANCH  33  34
ENDBRANCH  21  28
ENDBRANCH  10  11
ENDBRANCH   3  10
TORSDOF 10
ENDMDL
MODEL 9
REMARK VINA RESULT:    -8.387      3.808      6.514
REMARK INTER + INTRA:         -13.325
REMARK INTER:                 -12.309
REMARK INTRA:                  -1.016
REMARK UNBOUND:                -1.016
REMARK SMILES CC(C)=CCC/C(C)=C/Cc1c(O)cc2oc(-c3ccc(O)cc3)c(O)c(=O)c2c1O
REMARK SMILES IDX 8 1 7 2 9 3 6 4 5 5 4 6 2 7 1 8 3 9 10 10 11 11 12 12 30 13
REMARK SMILES IDX 14 14 29 15 15 16 27 17 16 18 28 19 25 20 17 21 13 22 31 24
REMARK SMILES IDX 26 26 18 28 19 29 24 30 20 31 23 32 21 33 22 34
REMARK H PARENT 13 23 31 25 26 27 22 35
ROOT
ATOM      1  C   UNL     1      83.642  46.221  42.062  1.00  0.00     0.039 C 
ATOM      2  C   UNL     1      83.254  45.916  43.483  1.00  0.00    -0.077 C 
ATOM      3  C   UNL     1      84.116  45.561  44.460  1.00  0.00    -0.023 C 
ENDROOT
BRANCH   2   4
ATOM      4  C   UNL     1      81.764  45.968  43.775  1.00  0.00     0.034 C 
BRANCH   4   5
ATOM      5  C   UNL     1      81.300  47.233  44.511  1.00  0.00     0.032 C 
BRANCH   5   6
ATOM      6  C   UNL     1      80.896  48.358  43.596  1.00  0.00    -0.028 C 
ATOM      7  C   UNL     1      81.609  49.454  43.275  1.00  0.00    -0.080 C 
ATOM      8  C   UNL     1      82.967  49.791  43.826  1.00  0.00     0.039 C 
ATOM      9  C   UNL     1      81.060  50.472  42.309  1.00  0.00     0.039 C 
ENDBRANCH   5   6
ENDBRANCH   4   5
ENDBRANCH   2   4
BRANCH   3  10
ATOM     10  C   UNL     1      85.617  45.439  44.392  1.00  0.00     0.070 C 
BRANCH  10  11
ATOM     11  C   UNL     1      86.250  46.555  43.589  1.00  0.00     0.040 A 
ATOM     12  C   UNL     1      86.926  46.288  42.387  1.00  0.00     0.126 A 
ATOM     13  C   UNL     1      86.210  47.885  44.043  1.00  0.00     0.137 A 
ATOM     14  C   UNL     1      87.539  47.305  41.652  1.00  0.00     0.094 A 
ATOM     15  C   UNL     1      86.824  48.908  43.307  1.00  0.00     0.111 A 
ATOM     16  C   UNL     1      87.485  48.617  42.119  1.00  0.00     0.146 A 
ATOM     17  C   UNL     1      86.799  50.304  43.752  1.00  0.00     0.238 C 
ATOM     18  O   UNL     1      88.107  49.570  41.353  1.00  0.00    -0.452 OA
ATOM     19  O   UNL     1      86.245  50.645  44.795  1.00  0.00    -0.285 OA
ATOM     20  C   UNL     1      87.470  51.310  42.898  1.00  0.00     0.208 C 
ATOM     21  C   UNL     1      88.070  50.896  41.767  1.00  0.00     0.180 C 
BRANCH  12  22
ATOM     22  O   UNL     1      86.978  45.002  41.926  1.00  0.00    -0.507 OA
ATOM     23  H   UNL     1      86.349  44.892  41.194  1.00  0.00     0.293 HD
ENDBRANCH  12  22
BRANCH  13  24
ATOM     24  O   UNL     1      85.556  48.143  45.222  1.00  0.00    -0.507 OA
ATOM     25  H   UNL     1      85.637  47.361  45.810  1.00  0.00     0.293 HD
ENDBRANCH  13  24
BRANCH  20  26
ATOM     26  O   UNL     1      87.450  52.622  43.336  1.00  0.00    -0.502 OA
ATOM     27  H   UNL     1      88.049  52.645  44.112  1.00  0.00     0.293 HD
ENDBRANCH  20  26
BRANCH  21  28
ATOM     28  C   UNL     1      88.782  51.807  40.845  1.00  0.00     0.021 A 
ATOM     29  C   UNL     1      90.082  52.235  41.153  1.00  0.00     0.016 A 
ATOM     30  C   UNL     1      88.206  52.230  39.636  1.00  0.00     0.016 A 
ATOM     31  C   UNL     1      90.784  53.075  40.285  1.00  0.00     0.047 A 
ATOM     32  C   UNL     1      88.906  53.072  38.765  1.00  0.00     0.047 A 
ATOM     33  C   UNL     1      90.189  53.488  39.100  1.00  0.00     0.115 A 
BRANCH  33  34
ATOM     34  O   UNL     1      90.907  54.308  38.281  1.00  0.00    -0.508 OA
ATOM     35  H   UNL     1      90.299  54.717  37.643  1.00  0.00     0.293 HD
ENDBRANCH  33  34
ENDBRANCH  21  28
ENDBRANCH  10  11
ENDBRANCH   3  10
TORSDOF 10
ENDMDL
