MODEL 1
REMARK VINA RESULT:    -8.278      0.000      0.000
REMARK INTER + INTRA:          -9.563
REMARK INTER:                  -9.253
REMARK INTRA:                  -0.310
REMARK UNBOUND:                -0.317
REMARK SMILES O=C1C[C@@H](c2ccccc2)Oc2cc(O)cc(O)c21
REMARK SMILES IDX 14 1 13 2 12 3 11 4 4 5 3 6 2 7 1 8 19 9 17 10 16 11 15 12
REMARK SMILES IDX 18 14 5 16 6 17 10 18 7 19 9 20 8 21
REMARK H PARENT 15 13 18 15
ROOT
ATOM      1  C   UNL     1      85.887  58.013  44.309  1.00  0.00     0.123 A 
ATOM      2  C   UNL     1      86.376  56.709  44.280  1.00  0.00     0.093 A 
ATOM      3  C   UNL     1      85.843  55.761  45.155  1.00  0.00     0.138 A 
ATOM      4  O   UNL     1      86.373  54.499  45.080  1.00  0.00    -0.484 OA
ATOM      5  C   UNL     1      86.201  53.746  46.294  1.00  0.00     0.211 C 
ATOM      6  C   UNL     1      84.731  53.663  46.678  1.00  0.00     0.131 C 
ATOM      7  C   UNL     1      84.223  55.061  46.878  1.00  0.00     0.174 C 
ATOM      8  O   UNL     1      83.321  55.341  47.665  1.00  0.00    -0.294 OA
ATOM      9  C   UNL     1      84.808  56.112  46.024  1.00  0.00     0.102 A 
ATOM     10  C   UNL     1      84.328  57.426  46.045  1.00  0.00     0.133 A 
ATOM     11  C   UNL     1      84.872  58.379  45.188  1.00  0.00     0.093 A 
ENDROOT
BRANCH   1  12
ATOM     12  O   UNL     1      86.385  58.974  43.481  1.00  0.00    -0.508 OA
ATOM     13  H   UNL     1      87.222  58.663  43.096  1.00  0.00     0.293 HD
ENDBRANCH   1  12
BRANCH  10  14
ATOM     14  O   UNL     1      83.320  57.838  46.873  1.00  0.00    -0.507 OA
ATOM     15  H   UNL     1      82.789  57.051  47.128  1.00  0.00     0.293 HD
ENDBRANCH  10  14
BRANCH   5  16
ATOM     16  C   UNL     1      86.780  52.357  46.095  1.00  0.00    -0.007 A 
ATOM     17  C   UNL     1      86.813  51.425  47.144  1.00  0.00     0.007 A 
ATOM     18  C   UNL     1      87.328  51.996  44.855  1.00  0.00     0.007 A 
ATOM     19  C   UNL     1      87.372  50.160  46.953  1.00  0.00     0.000 A 
ATOM     20  C   UNL     1      87.887  50.731  44.666  1.00  0.00     0.000 A 
ATOM     21  C   UNL     1      87.908  49.813  45.715  1.00  0.00     0.000 A 
ENDBRANCH   5  16
TORSDOF 3
ENDMDL
MODEL 2
REMARK VINA RESULT:    -7.854      7.308      8.446
REMARK INTER + INTRA:          -9.088
REMARK INTER:                  -8.770
REMARK INTRA:                  -0.318
REMARK UNBOUND:                -0.317
REMARK SMILES O=C1C[C@@H](c2ccccc2)Oc2cc(O)cc(O)c21
REMARK SMILES IDX 14 1 13 2 12 3 11 4 4 5 3 6 2 7 1 8 19 9 17 10 16 11 15 12
REMARK SMILES IDX 18 14 5 16 6 17 10 18 7 19 9 20 8 21
REMARK H PARENT 15 13 18 15
ROOT
ATOM      1  C   UNL     1      80.889  50.477  42.641  1.00  0.00     0.123 A 
ATOM      2  C   UNL     1      82.065  49.746  42.485  1.00  0.00     0.093 A 
ATOM      3  C   UNL     1      82.171  48.491  43.085  1.00  0.00     0.138 A 
ATOM      4  O   UNL     1      83.356  47.826  42.899  1.00  0.00    -0.484 OA
ATOM      5  C   UNL     1      83.619  46.851  43.923  1.00  0.00     0.211 C 
ATOM      6  C   UNL     1      82.480  45.848  44.025  1.00  0.00     0.131 C 
ATOM      7  C   UNL     1      81.225  46.602  44.358  1.00  0.00     0.174 C 
ATOM      8  O   UNL     1      80.304  46.115  45.010  1.00  0.00    -0.294 OA
ATOM      9  C   UNL     1      81.097  47.963  43.805  1.00  0.00     0.102 A 
ATOM     10  C   UNL     1      79.923  48.709  43.955  1.00  0.00     0.133 A 
ATOM     11  C   UNL     1      79.821  49.971  43.376  1.00  0.00     0.093 A 
ENDROOT
BRANCH   1  12
ATOM     12  O   UNL     1      80.745  51.712  42.082  1.00  0.00    -0.508 OA
ATOM     13  H   UNL     1      80.343  52.313  42.731  1.00  0.00     0.293 HD
ENDBRANCH   1  12
BRANCH  10  14
ATOM     14  O   UNL     1      78.835  48.255  44.650  1.00  0.00    -0.507 OA
ATOM     15  H   UNL     1      78.032  48.425  44.110  1.00  0.00     0.293 HD
ENDBRANCH  10  14
BRANCH   5  16
ATOM     16  C   UNL     1      84.924  46.145  43.605  1.00  0.00    -0.007 A 
ATOM     17  C   UNL     1      85.868  46.715  42.735  1.00  0.00     0.007 A 
ATOM     18  C   UNL     1      85.191  44.882  44.153  1.00  0.00     0.007 A 
ATOM     19  C   UNL     1      87.053  46.042  42.431  1.00  0.00     0.000 A 
ATOM     20  C   UNL     1      86.376  44.210  43.847  1.00  0.00     0.000 A 
ATOM     21  C   UNL     1      87.306  44.790  42.988  1.00  0.00     0.000 A 
ENDBRANCH   5  16
TORSDOF 3
ENDMDL
MODEL 3
REMARK VINA RESULT:    -7.744      1.910      3.165
REMARK INTER + INTRA:          -8.966
REMARK INTER:                  -8.670
REMARK INTRA:                  -0.296
REMARK UNBOUND:                -0.317
REMARK SMILES O=C1C[C@@H](c2ccccc2)Oc2cc(O)cc(O)c21
REMARK SMILES IDX 14 1 13 2 12 3 11 4 4 5 3 6 2 7 1 8 19 9 17 10 16 11 15 12
REMARK SMILES IDX 18 14 5 16 6 17 10 18 7 19 9 20 8 21
REMARK H PARENT 15 13 18 15
ROOT
ATOM      1  C   UNL     1      84.817  57.523  44.523  1.00  0.00     0.123 A 
ATOM      2  C   UNL     1      85.338  56.517  45.334  1.00  0.00     0.093 A 
ATOM      3  C   UNL     1      85.683  55.292  44.763  1.00  0.00     0.138 A 
ATOM      4  O   UNL     1      86.184  54.343  45.615  1.00  0.00    -0.484 OA
ATOM      5  C   UNL     1      86.016  53.001  45.123  1.00  0.00     0.211 C 
ATOM      6  C   UNL     1      86.651  52.842  43.750  1.00  0.00     0.131 C 
ATOM      7  C   UNL     1      85.985  53.809  42.814  1.00  0.00     0.174 C 
ATOM      8  O   UNL     1      85.855  53.596  41.611  1.00  0.00    -0.294 OA
ATOM      9  C   UNL     1      85.537  55.092  43.388  1.00  0.00     0.102 A 
ATOM     10  C   UNL     1      85.010  56.110  42.586  1.00  0.00     0.133 A 
ATOM     11  C   UNL     1      84.645  57.326  43.156  1.00  0.00     0.093 A 
ENDROOT
BRANCH   1  12
ATOM     12  O   UNL     1      84.456  58.732  45.041  1.00  0.00    -0.508 OA
ATOM     13  H   UNL     1      83.574  58.972  44.709  1.00  0.00     0.293 HD
ENDBRANCH   1  12
BRANCH  10  14
ATOM     14  O   UNL     1      84.836  55.980  41.235  1.00  0.00    -0.507 OA
ATOM     15  H   UNL     1      85.530  56.509  40.783  1.00  0.00     0.293 HD
ENDBRANCH  10  14
BRANCH   5  16
ATOM     16  C   UNL     1      86.638  52.034  46.113  1.00  0.00    -0.007 A 
ATOM     17  C   UNL     1      87.679  51.171  45.734  1.00  0.00     0.007 A 
ATOM     18  C   UNL     1      86.150  51.964  47.427  1.00  0.00     0.007 A 
ATOM     19  C   UNL     1      88.223  50.268  46.650  1.00  0.00     0.000 A 
ATOM     20  C   UNL     1      86.696  51.060  48.341  1.00  0.00     0.000 A 
ATOM     21  C   UNL     1      87.732  50.214  47.952  1.00  0.00     0.000 A 
ENDBRANCH   5  16
TORSDOF 3
ENDMDL
MODEL 4
REMARK VINA RESULT:    -7.696      7.057      9.003
REMARK INTER + INTRA:          -8.913
REMARK INTER:                  -8.598
REMARK INTRA:                  -0.314
REMARK UNBOUND:                -0.317
REMARK SMILES O=C1C[C@@H](c2ccccc2)Oc2cc(O)cc(O)c21
REMARK SMILES IDX 14 1 13 2 12 3 11 4 4 5 3 6 2 7 1 8 19 9 17 10 16 11 15 12
REMARK SMILES IDX 18 14 5 16 6 17 10 18 7 19 9 20 8 21
REMARK H PARENT 15 13 18 15
ROOT
ATOM      1  C   UNL     1      80.326  47.040  44.241  1.00  0.00     0.123 A 
ATOM      2  C   UNL     1      81.452  46.220  44.188  1.00  0.00     0.093 A 
ATOM      3  C   UNL     1      82.691  46.782  43.880  1.00  0.00     0.138 A 
ATOM      4  O   UNL     1      83.756  45.921  43.836  1.00  0.00    -0.484 OA
ATOM      5  C   UNL     1      84.839  46.408  43.025  1.00  0.00     0.211 C 
ATOM      6  C   UNL     1      85.305  47.775  43.504  1.00  0.00     0.131 C 
ATOM      7  C   UNL     1      84.143  48.721  43.413  1.00  0.00     0.174 C 
ATOM      8  O   UNL     1      84.274  49.925  43.201  1.00  0.00    -0.294 OA
ATOM      9  C   UNL     1      82.803  48.157  43.661  1.00  0.00     0.102 A 
ATOM     10  C   UNL     1      81.665  48.968  43.715  1.00  0.00     0.133 A 
ATOM     11  C   UNL     1      80.423  48.407  44.001  1.00  0.00     0.093 A 
ENDROOT
BRANCH   1  12
ATOM     12  O   UNL     1      79.094  46.532  44.527  1.00  0.00    -0.508 OA
ATOM     13  H   UNL     1      78.415  47.070  44.086  1.00  0.00     0.293 HD
ENDBRANCH   1  12
BRANCH  10  14
ATOM     14  O   UNL     1      81.702  50.321  43.507  1.00  0.00    -0.507 OA
ATOM     15  H   UNL     1      80.808  50.612  43.220  1.00  0.00     0.293 HD
ENDBRANCH  10  14
BRANCH   5  16
ATOM     16  C   UNL     1      85.979  45.408  43.077  1.00  0.00    -0.007 A 
ATOM     17  C   UNL     1      85.881  44.228  43.833  1.00  0.00     0.007 A 
ATOM     18  C   UNL     1      87.175  45.670  42.392  1.00  0.00     0.007 A 
ATOM     19  C   UNL     1      86.948  43.330  43.892  1.00  0.00     0.000 A 
ATOM     20  C   UNL     1      88.241  44.771  42.452  1.00  0.00     0.000 A 
ATOM     21  C   UNL     1      88.127  43.601  43.201  1.00  0.00     0.000 A 
ENDBRANCH   5  16
TORSDOF 3
ENDMDL
MODEL 5
REMARK VINA RESULT:    -7.598      8.096     10.207
REMARK INTER + INTRA:          -8.803
REMARK INTER:                  -8.487
REMARK INTRA:                  -0.316
REMARK UNBOUND:                -0.317
REMARK SMILES O=C1C[C@@H](c2ccccc2)Oc2cc(O)cc(O)c21
REMARK SMILES IDX 14 1 13 2 12 3 11 4 4 5 3 6 2 7 1 8 19 9 17 10 16 11 15 12
REMARK SMILES IDX 18 14 5 16 6 17 10 18 7 19 9 20 8 21
REMARK H PARENT 15 13 18 15
ROOT
ATOM      1  C   UNL     1      88.556  47.292  41.845  1.00  0.00     0.123 A 
ATOM      2  C   UNL     1      87.283  47.737  42.195  1.00  0.00     0.093 A 
ATOM      3  C   UNL     1      86.380  46.838  42.765  1.00  0.00     0.138 A 
ATOM      4  O   UNL     1      85.143  47.337  43.080  1.00  0.00    -0.484 OA
ATOM      5  C   UNL     1      84.127  46.320  43.143  1.00  0.00     0.211 C 
ATOM      6  C   UNL     1      84.509  45.231  44.135  1.00  0.00     0.131 C 
ATOM      7  C   UNL     1      85.804  44.622  43.681  1.00  0.00     0.174 C 
ATOM      8  O   UNL     1      86.105  43.450  43.896  1.00  0.00    -0.294 OA
ATOM      9  C   UNL     1      86.763  45.518  43.009  1.00  0.00     0.102 A 
ATOM     10  C   UNL     1      88.044  45.084  42.650  1.00  0.00     0.133 A 
ATOM     11  C   UNL     1      88.940  45.973  42.062  1.00  0.00     0.093 A 
ENDROOT
BRANCH   1  12
ATOM     12  O   UNL     1      89.467  48.133  41.276  1.00  0.00    -0.508 OA
ATOM     13  H   UNL     1      89.050  48.997  41.117  1.00  0.00     0.293 HD
ENDBRANCH   1  12
BRANCH  10  14
ATOM     14  O   UNL     1      88.483  43.805  42.856  1.00  0.00    -0.507 OA
ATOM     15  H   UNL     1      88.824  43.741  43.776  1.00  0.00     0.293 HD
ENDBRANCH  10  14
BRANCH   5  16
ATOM     16  C   UNL     1      82.812  46.964  43.539  1.00  0.00    -0.007 A 
ATOM     17  C   UNL     1      82.521  48.295  43.200  1.00  0.00     0.007 A 
ATOM     18  C   UNL     1      81.874  46.240  44.290  1.00  0.00     0.007 A 
ATOM     19  C   UNL     1      81.317  48.882  43.593  1.00  0.00     0.000 A 
ATOM     20  C   UNL     1      80.670  46.829  44.683  1.00  0.00     0.000 A 
ATOM     21  C   UNL     1      80.392  48.149  44.334  1.00  0.00     0.000 A 
ENDBRANCH   5  16
TORSDOF 3
ENDMDL
MODEL 6
REMARK VINA RESULT:    -7.590      2.453      3.186
REMARK INTER + INTRA:          -8.794
REMARK INTER:                  -8.515
REMARK INTRA:                  -0.278
REMARK UNBOUND:                -0.317
REMARK SMILES O=C1C[C@@H](c2ccccc2)Oc2cc(O)cc(O)c21
REMARK SMILES IDX 14 1 13 2 12 3 11 4 4 5 3 6 2 7 1 8 19 9 17 10 16 11 15 12
REMARK SMILES IDX 18 14 5 16 6 17 10 18 7 19 9 20 8 21
REMARK H PARENT 15 13 18 15
ROOT
ATOM      1  C   UNL     1      83.931  54.593  41.425  1.00  0.00     0.123 A 
ATOM      2  C   UNL     1      84.322  53.648  42.371  1.00  0.00     0.093 A 
ATOM      3  C   UNL     1      84.966  54.073  43.533  1.00  0.00     0.138 A 
ATOM      4  O   UNL     1      85.331  53.093  44.419  1.00  0.00    -0.484 OA
ATOM      5  C   UNL     1      86.413  53.490  45.281  1.00  0.00     0.211 C 
ATOM      6  C   UNL     1      86.065  54.763  46.039  1.00  0.00     0.131 C 
ATOM      7  C   UNL     1      85.800  55.846  45.033  1.00  0.00     0.174 C 
ATOM      8  O   UNL     1      86.019  57.034  45.254  1.00  0.00    -0.294 OA
ATOM      9  C   UNL     1      85.184  55.434  43.757  1.00  0.00     0.102 A 
ATOM     10  C   UNL     1      84.788  56.373  42.798  1.00  0.00     0.133 A 
ATOM     11  C   UNL     1      84.164  55.950  41.627  1.00  0.00     0.093 A 
ENDROOT
BRANCH   1  12
ATOM     12  O   UNL     1      83.309  54.222  40.270  1.00  0.00    -0.508 OA
ATOM     13  H   UNL     1      83.874  53.595  39.789  1.00  0.00     0.293 HD
ENDBRANCH   1  12
BRANCH  10  14
ATOM     14  O   UNL     1      84.974  57.720  42.951  1.00  0.00    -0.507 OA
ATOM     15  H   UNL     1      85.899  57.934  42.694  1.00  0.00     0.293 HD
ENDBRANCH  10  14
BRANCH   5  16
ATOM     16  C   UNL     1      86.711  52.359  46.247  1.00  0.00    -0.007 A 
ATOM     17  C   UNL     1      86.122  52.314  47.521  1.00  0.00     0.007 A 
ATOM     18  C   UNL     1      87.617  51.350  45.888  1.00  0.00     0.007 A 
ATOM     19  C   UNL     1      86.426  51.280  48.409  1.00  0.00     0.000 A 
ATOM     20  C   UNL     1      87.920  50.317  46.778  1.00  0.00     0.000 A 
ATOM     21  C   UNL     1      87.324  50.282  48.037  1.00  0.00     0.000 A 
ENDBRANCH   5  16
TORSDOF 3
ENDMDL
MODEL 7
REMARK VINA RESULT:    -7.532      1.790      3.445
REMARK INTER + INTRA:          -8.730
REMARK INTER:                  -8.416
REMARK INTRA:                  -0.314
REMARK UNBOUND:                -0.317
REMARK SMILES O=C1C[C@@H](c2ccccc2)Oc2cc(O)cc(O)c21
REMARK SMILES IDX 14 1 13 2 12 3 11 4 4 5 3 6 2 7 1 8 19 9 17 10 16 11 15 12
REMARK SMILES IDX 18 14 5 16 6 17 10 18 7 19 9 20 8 21
REMARK H PARENT 15 13 18 15
ROOT
ATOM      1  C   UNL     1      84.532  55.247  47.535  1.00  0.00     0.123 A 
ATOM      2  C   UNL     1      85.359  54.240  47.041  1.00  0.00     0.093 A 
ATOM      3  C   UNL     1      85.774  54.291  45.710  1.00  0.00     0.138 A 
ATOM      4  O   UNL     1      86.580  53.267  45.285  1.00  0.00    -0.484 OA
ATOM      5  C   UNL     1      86.534  53.071  43.860  1.00  0.00     0.211 C 
ATOM      6  C   UNL     1      86.899  54.351  43.123  1.00  0.00     0.131 C 
ATOM      7  C   UNL     1      85.914  55.413  43.517  1.00  0.00     0.174 C 
ATOM      8  O   UNL     1      85.583  56.330  42.770  1.00  0.00    -0.294 OA
ATOM      9  C   UNL     1      85.391  55.358  44.895  1.00  0.00     0.102 A 
ATOM     10  C   UNL     1      84.559  56.362  45.404  1.00  0.00     0.133 A 
ATOM     11  C   UNL     1      84.125  56.303  46.725  1.00  0.00     0.093 A 
ENDROOT
BRANCH   1  12
ATOM     12  O   UNL     1      84.093  55.232  48.826  1.00  0.00    -0.508 OA
ATOM     13  H   UNL     1      83.689  54.368  49.016  1.00  0.00     0.293 HD
ENDBRANCH   1  12
BRANCH  10  14
ATOM     14  O   UNL     1      84.142  57.432  44.660  1.00  0.00    -0.507 OA
ATOM     15  H   UNL     1      84.151  57.171  43.713  1.00  0.00     0.293 HD
ENDBRANCH  10  14
BRANCH   5  16
ATOM     16  C   UNL     1      87.487  51.950  43.488  1.00  0.00    -0.007 A 
ATOM     17  C   UNL     1      87.670  50.839  44.328  1.00  0.00     0.007 A 
ATOM     18  C   UNL     1      88.234  52.028  42.303  1.00  0.00     0.007 A 
ATOM     19  C   UNL     1      88.569  49.829  43.984  1.00  0.00     0.000 A 
ATOM     20  C   UNL     1      89.134  51.017  41.962  1.00  0.00     0.000 A 
ATOM     21  C   UNL     1      89.300  49.917  42.801  1.00  0.00     0.000 A 
ENDBRANCH   5  16
TORSDOF 3
ENDMDL
MODEL 8
REMARK VINA RESULT:    -7.487      1.380      2.332
REMARK INTER + INTRA:          -8.679
REMARK INTER:                  -8.361
REMARK INTRA:                  -0.318
REMARK UNBOUND:                -0.317
REMARK SMILES O=C1C[C@@H](c2ccccc2)Oc2cc(O)cc(O)c21
REMARK SMILES IDX 14 1 13 2 12 3 11 4 4 5 3 6 2 7 1 8 19 9 17 10 16 11 15 12
REMARK SMILES IDX 18 14 5 16 6 17 10 18 7 19 9 20 8 21
REMARK H PARENT 15 13 18 15
ROOT
ATOM      1  C   UNL     1      84.643  57.160  45.222  1.00  0.00     0.123 A 
ATOM      2  C   UNL     1      85.340  56.153  44.557  1.00  0.00     0.093 A 
ATOM      3  C   UNL     1      85.484  54.906  45.168  1.00  0.00     0.138 A 
ATOM      4  O   UNL     1      86.186  53.962  44.464  1.00  0.00    -0.484 OA
ATOM      5  C   UNL     1      86.752  52.942  45.306  1.00  0.00     0.211 C 
ATOM      6  C   UNL     1      85.674  52.264  46.138  1.00  0.00     0.131 C 
ATOM      7  C   UNL     1      85.016  53.311  46.990  1.00  0.00     0.174 C 
ATOM      8  O   UNL     1      84.532  53.070  48.093  1.00  0.00    -0.294 OA
ATOM      9  C   UNL     1      84.905  54.665  46.415  1.00  0.00     0.102 A 
ATOM     10  C   UNL     1      84.210  55.685  47.073  1.00  0.00     0.133 A 
ATOM     11  C   UNL     1      84.083  56.937  46.476  1.00  0.00     0.093 A 
ENDROOT
BRANCH   1  12
ATOM     12  O   UNL     1      84.488  58.396  44.668  1.00  0.00    -0.508 OA
ATOM     13  H   UNL     1      83.847  58.904  45.194  1.00  0.00     0.293 HD
ENDBRANCH   1  12
BRANCH  10  14
ATOM     14  O   UNL     1      83.623  55.519  48.297  1.00  0.00    -0.507 OA
ATOM     15  H   UNL     1      82.728  55.924  48.267  1.00  0.00     0.293 HD
ENDBRANCH  10  14
BRANCH   5  16
ATOM     16  C   UNL     1      87.468  51.928  44.433  1.00  0.00    -0.007 A 
ATOM     17  C   UNL     1      87.772  52.207  43.091  1.00  0.00     0.007 A 
ATOM     18  C   UNL     1      87.806  50.669  44.952  1.00  0.00     0.007 A 
ATOM     19  C   UNL     1      88.409  51.254  42.293  1.00  0.00     0.000 A 
ATOM     20  C   UNL     1      88.442  49.718  44.152  1.00  0.00     0.000 A 
ATOM     21  C   UNL     1      88.744  50.011  42.824  1.00  0.00     0.000 A 
ENDBRANCH   5  16
TORSDOF 3
ENDMDL
MODEL 9
REMARK VINA RESULT:    -7.481      3.621      6.199
REMARK INTER + INTRA:          -8.672
REMARK INTER:                  -8.356
REMARK INTRA:                  -0.317
REMARK UNBOUND:                -0.317
REMARK SMILES O=C1C[C@@H](c2ccccc2)Oc2cc(O)cc(O)c21
REMARK SMILES IDX 14 1 13 2 12 3 11 4 4 5 3 6 2 7 1 8 19 9 17 10 16 11 15 12
REMARK SMILES IDX 18 14 5 16 6 17 10 18 7 19 9 20 8 21
REMARK H PARENT 15 13 18 15
ROOT
ATOM      1  C   UNL     1      89.496  50.190  41.576  1.00  0.00     0.123 A 
ATOM      2  C   UNL     1      89.000  50.275  42.875  1.00  0.00     0.093 A 
ATOM      3  C   UNL     1      88.099  51.290  43.196  1.00  0.00     0.138 A 
ATOM      4  O   UNL     1      87.655  51.323  44.492  1.00  0.00    -0.484 OA
ATOM      5  C   UNL     1      87.194  52.624  44.896  1.00  0.00     0.211 C 
ATOM      6  C   UNL     1      86.098  53.125  43.967  1.00  0.00     0.131 C 
ATOM      7  C   UNL     1      86.664  53.199  42.578  1.00  0.00     0.174 C 
ATOM      8  O   UNL     1      86.281  54.014  41.741  1.00  0.00    -0.294 OA
ATOM      9  C   UNL     1      87.675  52.189  42.214  1.00  0.00     0.102 A 
ATOM     10  C   UNL     1      88.182  52.093  40.914  1.00  0.00     0.133 A 
ATOM     11  C   UNL     1      89.098  51.095  40.596  1.00  0.00     0.093 A 
ENDROOT
BRANCH   1  12
ATOM     12  O   UNL     1      90.387  49.221  41.220  1.00  0.00    -0.508 OA
ATOM     13  H   UNL     1      90.483  49.214  40.253  1.00  0.00     0.293 HD
ENDBRANCH   1  12
BRANCH  10  14
ATOM     14  O   UNL     1      87.813  52.942  39.906  1.00  0.00    -0.507 OA
ATOM     15  H   UNL     1      87.310  52.426  39.238  1.00  0.00     0.293 HD
ENDBRANCH  10  14
BRANCH   5  16
ATOM     16  C   UNL     1      86.687  52.544  46.324  1.00  0.00    -0.007 A 
ATOM     17  C   UNL     1      86.822  51.369  47.081  1.00  0.00     0.007 A 
ATOM     18  C   UNL     1      86.037  53.645  46.900  1.00  0.00     0.007 A 
ATOM     19  C   UNL     1      86.327  51.302  48.385  1.00  0.00     0.000 A 
ATOM     20  C   UNL     1      85.543  53.577  48.205  1.00  0.00     0.000 A 
ATOM     21  C   UNL     1      85.689  52.406  48.946  1.00  0.00     0.000 A 
ENDBRANCH   5  16
TORSDOF 3
ENDMDL
