MODEL 1
REMARK VINA RESULT:    -7.431      0.000      0.000
REMARK INTER + INTRA:          -8.624
REMARK INTER:                  -8.960
REMARK INTRA:                   0.337
REMARK UNBOUND:                -0.107
REMARK SMILES CC1(C)CC[C@]2(C(=O)O)CC[C@]3(C)C(=CC[C@@H]4[C@@]5(C)C[C@@H](O)[C@H](O)C(C)(C)[C@@H]5CC[C@]43C)[C@@H]2C1
REMARK SMILES IDX 21 1 20 2 18 3 19 4 28 5 25 6 23 7 26 8 27 9 29 10 30 11
REMARK SMILES IDX 31 12 17 13 16 14 15 15 14 16 12 17 13 18 11 19 10 20 6 21
REMARK SMILES IDX 33 22 34 23 2 24 1 25 3 26 4 27 5 28 32 29 22 30 24 32 7 34
REMARK SMILES IDX 8 35 9 36
REMARK H PARENT 22 31 24 33 9 37
ROOT
ATOM      1  C   UNL     1      87.244  56.165  44.623  1.00  0.00     0.144 C 
ATOM      2  C   UNL     1      87.030  55.052  45.647  1.00  0.00     0.042 C 
ATOM      3  C   UNL     1      85.885  54.028  45.313  1.00  0.00    -0.023 C 
ATOM      4  C   UNL     1      85.167  53.757  46.665  1.00  0.00     0.012 C 
ATOM      5  C   UNL     1      84.944  54.651  44.213  1.00  0.00     0.004 C 
ATOM      6  C   UNL     1      84.614  56.167  44.406  1.00  0.00    -0.003 C 
ATOM      7  C   UNL     1      85.961  56.975  44.314  1.00  0.00     0.149 C 
ATOM      8  C   UNL     1      83.711  56.676  43.250  1.00  0.00     0.014 C 
ATOM      9  C   UNL     1      83.839  56.462  45.704  1.00  0.00     0.014 C 
ATOM     10  C   UNL     1      83.775  53.704  43.890  1.00  0.00     0.005 C 
ATOM     11  C   UNL     1      84.322  52.431  43.233  1.00  0.00     0.008 C 
ATOM     12  C   UNL     1      85.409  51.671  44.050  1.00  0.00    -0.020 C 
ATOM     13  C   UNL     1      86.463  52.681  44.675  1.00  0.00     0.006 C 
ATOM     14  C   UNL     1      87.471  51.908  45.554  1.00  0.00     0.032 C 
ATOM     15  C   UNL     1      87.920  50.599  44.971  1.00  0.00    -0.027 C 
ATOM     16  C   UNL     1      87.401  49.991  43.885  1.00  0.00    -0.063 C 
ATOM     17  C   UNL     1      86.224  50.605  43.107  1.00  0.00    -0.006 C 
ATOM     18  C   UNL     1      86.821  51.298  41.846  1.00  0.00     0.017 C 
ATOM     19  C   UNL     1      85.271  49.480  42.610  1.00  0.00     0.013 C 
ATOM     20  C   UNL     1      85.981  48.308  41.930  1.00  0.00     0.020 C 
ATOM     21  C   UNL     1      86.993  47.614  42.869  1.00  0.00     0.074 C 
ATOM     22  C   UNL     1      88.003  48.647  43.456  1.00  0.00     0.033 C 
ATOM     23  C   UNL     1      89.218  48.817  42.518  1.00  0.00     0.015 C 
ATOM     24  C   UNL     1      90.046  47.509  42.400  1.00  0.00    -0.035 C 
ATOM     25  C   UNL     1      91.138  47.475  43.487  1.00  0.00     0.011 C 
ATOM     26  C   UNL     1      90.745  47.488  41.027  1.00  0.00     0.011 C 
ATOM     27  C   UNL     1      89.148  46.256  42.557  1.00  0.00     0.007 C 
ATOM     28  C   UNL     1      87.726  46.504  42.055  1.00  0.00     0.020 C 
ATOM     29  C   UNL     1      84.653  50.886  45.170  1.00  0.00     0.012 C 
ENDROOT
BRANCH   1  30
ATOM     30  O   UNL     1      87.779  55.587  43.427  1.00  0.00    -0.390 OA
ATOM     31  H   UNL     1      87.774  54.623  43.552  1.00  0.00     0.211 HD
ENDBRANCH   1  30
BRANCH   7  32
ATOM     32  O   UNL     1      85.931  58.135  45.153  1.00  0.00    -0.390 OA
ATOM     33  H   UNL     1      85.056  58.546  45.048  1.00  0.00     0.211 HD
ENDBRANCH   7  32
BRANCH  21  34
ATOM     34  C   UNL     1      86.280  46.900  44.026  1.00  0.00     0.310 C 
ATOM     35  O   UNL     1      85.943  45.727  44.072  1.00  0.00    -0.252 OA
BRANCH  34  36
ATOM     36  O   UNL     1      85.939  47.715  45.045  1.00  0.00    -0.481 OA
ATOM     37  H   UNL     1      85.766  47.095  45.785  1.00  0.00     0.296 HD
ENDBRANCH  34  36
ENDBRANCH  21  34
TORSDOF 4
ENDMDL
MODEL 2
REMARK VINA RESULT:    -6.999      2.215      3.887
REMARK INTER + INTRA:          -8.129
REMARK INTER:                  -8.074
REMARK INTRA:                  -0.054
REMARK UNBOUND:                -0.107
REMARK SMILES CC1(C)CC[C@]2(C(=O)O)CC[C@]3(C)C(=CC[C@@H]4[C@@]5(C)C[C@@H](O)[C@H](O)C(C)(C)[C@@H]5CC[C@]43C)[C@@H]2C1
REMARK SMILES IDX 21 1 20 2 18 3 19 4 28 5 25 6 23 7 26 8 27 9 29 10 30 11
REMARK SMILES IDX 31 12 17 13 16 14 15 15 14 16 12 17 13 18 11 19 10 20 6 21
REMARK SMILES IDX 33 22 34 23 2 24 1 25 3 26 4 27 5 28 32 29 22 30 24 32 7 34
REMARK SMILES IDX 8 35 9 36
REMARK H PARENT 22 31 24 33 9 37
ROOT
ATOM      1  C   UNL     1      83.214  55.344  46.313  1.00  0.00     0.144 C 
ATOM      2  C   UNL     1      83.456  55.123  44.821  1.00  0.00     0.042 C 
ATOM      3  C   UNL     1      84.944  54.827  44.408  1.00  0.00    -0.023 C 
ATOM      4  C   UNL     1      85.173  55.625  43.093  1.00  0.00     0.012 C 
ATOM      5  C   UNL     1      85.900  55.260  45.583  1.00  0.00     0.004 C 
ATOM      6  C   UNL     1      85.528  56.613  46.274  1.00  0.00    -0.003 C 
ATOM      7  C   UNL     1      84.104  56.453  46.926  1.00  0.00     0.149 C 
ATOM      8  C   UNL     1      86.515  56.919  47.432  1.00  0.00     0.014 C 
ATOM      9  C   UNL     1      85.607  57.824  45.325  1.00  0.00     0.014 C 
ATOM     10  C   UNL     1      87.374  55.037  45.204  1.00  0.00     0.005 C 
ATOM     11  C   UNL     1      87.634  53.534  45.048  1.00  0.00     0.008 C 
ATOM     12  C   UNL     1      86.709  52.796  44.036  1.00  0.00    -0.020 C 
ATOM     13  C   UNL     1      85.199  53.263  44.198  1.00  0.00     0.006 C 
ATOM     14  C   UNL     1      84.324  52.585  43.119  1.00  0.00     0.032 C 
ATOM     15  C   UNL     1      84.656  51.141  42.876  1.00  0.00    -0.027 C 
ATOM     16  C   UNL     1      85.721  50.474  43.365  1.00  0.00    -0.063 C 
ATOM     17  C   UNL     1      86.764  51.172  44.254  1.00  0.00    -0.006 C 
ATOM     18  C   UNL     1      86.443  50.783  45.728  1.00  0.00     0.017 C 
ATOM     19  C   UNL     1      88.186  50.628  43.931  1.00  0.00     0.013 C 
ATOM     20  C   UNL     1      88.278  49.103  43.866  1.00  0.00     0.020 C 
ATOM     21  C   UNL     1      87.347  48.506  42.786  1.00  0.00     0.074 C 
ATOM     22  C   UNL     1      85.880  48.996  42.988  1.00  0.00     0.033 C 
ATOM     23  C   UNL     1      85.118  48.057  43.949  1.00  0.00     0.015 C 
ATOM     24  C   UNL     1      84.959  46.629  43.358  1.00  0.00    -0.035 C 
ATOM     25  C   UNL     1      83.653  46.536  42.546  1.00  0.00     0.011 C 
ATOM     26  C   UNL     1      84.867  45.621  44.520  1.00  0.00     0.011 C 
ATOM     27  C   UNL     1      86.148  46.266  42.434  1.00  0.00     0.007 C 
ATOM     28  C   UNL     1      87.443  46.953  42.868  1.00  0.00     0.020 C 
ATOM     29  C   UNL     1      87.252  53.137  42.611  1.00  0.00     0.012 C 
ENDROOT
BRANCH   1  30
ATOM     30  O   UNL     1      83.411  54.101  46.996  1.00  0.00    -0.390 OA
ATOM     31  H   UNL     1      83.899  54.301  47.814  1.00  0.00     0.211 HD
ENDBRANCH   1  30
BRANCH   7  32
ATOM     32  O   UNL     1      83.383  57.689  46.910  1.00  0.00    -0.390 OA
ATOM     33  H   UNL     1      82.865  57.734  47.732  1.00  0.00     0.211 HD
ENDBRANCH   7  32
BRANCH  21  34
ATOM     34  C   UNL     1      87.812  48.894  41.375  1.00  0.00     0.310 C 
ATOM     35  O   UNL     1      87.544  49.918  40.767  1.00  0.00    -0.252 OA
BRANCH  34  36
ATOM     36  O   UNL     1      88.524  47.934  40.751  1.00  0.00    -0.481 OA
ATOM     37  H   UNL     1      88.157  47.932  39.842  1.00  0.00     0.296 HD
ENDBRANCH  34  36
ENDBRANCH  21  34
TORSDOF 4
ENDMDL
