MODEL 1
REMARK VINA RESULT:    -8.829      0.000      0.000
REMARK INTER + INTRA:         -12.710
REMARK INTER:                 -11.429
REMARK INTRA:                  -1.281
REMARK UNBOUND:                -1.042
REMARK SMILES COc1cc(OC)c2c(c1/C=C/C(C)(C)O)OC(c1ccccc1)CC2=O
REMARK SMILES IDX 11 1 12 2 10 3 3 4 4 5 5 6 9 7 8 8 17 9 26 10 18 11 25 12
REMARK SMILES IDX 27 13 2 14 1 15 6 16 7 17 19 18 20 19 24 20 21 21 23 22
REMARK SMILES IDX 22 23 13 24 14 25 15 26 16 27
REMARK H PARENT 16 28
ROOT
ATOM      1  C   UNL     1      87.071  50.365  44.491  1.00  0.00     0.014 C 
ATOM      2  C   UNL     1      87.313  50.992  45.655  1.00  0.00     0.008 C 
ENDROOT
BRANCH   1   3
ATOM      3  C   UNL     1      87.349  51.011  43.195  1.00  0.00     0.059 A 
ATOM      4  C   UNL     1      88.601  50.856  42.564  1.00  0.00     0.133 A 
ATOM      5  C   UNL     1      88.839  51.503  41.349  1.00  0.00     0.094 A 
ATOM      6  C   UNL     1      87.839  52.277  40.748  1.00  0.00     0.137 A 
ATOM      7  C   UNL     1      86.361  51.821  42.599  1.00  0.00     0.145 A 
ATOM      8  C   UNL     1      86.597  52.447  41.369  1.00  0.00     0.103 A 
ATOM      9  O   UNL     1      85.168  51.953  43.275  1.00  0.00    -0.484 OA
ATOM     10  C   UNL     1      85.496  53.240  40.765  1.00  0.00     0.174 C 
ATOM     11  C   UNL     1      84.502  53.207  43.038  1.00  0.00     0.211 C 
ATOM     12  C   UNL     1      84.218  53.343  41.552  1.00  0.00     0.131 C 
ATOM     13  O   UNL     1      85.573  53.741  39.647  1.00  0.00    -0.294 OA
BRANCH   4  14
ATOM     14  O   UNL     1      89.514  50.051  43.201  1.00  0.00    -0.496 OA
ATOM     15  C   UNL     1      90.357  49.242  42.392  1.00  0.00     0.278 C 
ENDBRANCH   4  14
BRANCH   6  16
ATOM     16  O   UNL     1      88.169  52.917  39.582  1.00  0.00    -0.496 OA
ATOM     17  C   UNL     1      89.588  52.993  39.435  1.00  0.00     0.278 C 
ENDBRANCH   6  16
BRANCH  11  18
ATOM     18  C   UNL     1      85.206  54.351  43.762  1.00  0.00    -0.007 A 
ATOM     19  C   UNL     1      85.453  55.602  43.177  1.00  0.00     0.007 A 
ATOM     20  C   UNL     1      85.611  54.153  45.095  1.00  0.00     0.007 A 
ATOM     21  C   UNL     1      86.101  56.611  43.896  1.00  0.00     0.000 A 
ATOM     22  C   UNL     1      86.259  55.160  45.812  1.00  0.00     0.000 A 
ATOM     23  C   UNL     1      86.504  56.390  45.211  1.00  0.00     0.000 A 
ENDBRANCH  11  18
ENDBRANCH   1   3
BRANCH   2  24
ATOM     24  C   UNL     1      87.087  50.456  47.046  1.00  0.00     0.077 C 
ATOM     25  C   UNL     1      88.423  50.045  47.670  1.00  0.00     0.046 C 
ATOM     26  C   UNL     1      86.335  51.389  47.999  1.00  0.00     0.046 C 
BRANCH  24  27
ATOM     27  O   UNL     1      86.303  49.270  46.901  1.00  0.00    -0.386 OA
ATOM     28  H   UNL     1      85.900  49.308  46.015  1.00  0.00     0.211 HD
ENDBRANCH  24  27
ENDBRANCH   2  24
TORSDOF 6
ENDMDL
MODEL 2
REMARK VINA RESULT:    -8.569      2.657      6.095
REMARK INTER + INTRA:         -12.366
REMARK INTER:                 -11.233
REMARK INTRA:                  -1.133
REMARK UNBOUND:                -1.042
REMARK SMILES COc1cc(OC)c2c(c1/C=C/C(C)(C)O)OC(c1ccccc1)CC2=O
REMARK SMILES IDX 11 1 12 2 10 3 3 4 4 5 5 6 9 7 8 8 17 9 26 10 18 11 25 12
REMARK SMILES IDX 27 13 2 14 1 15 6 16 7 17 19 18 20 19 24 20 21 21 23 22
REMARK SMILES IDX 22 23 13 24 14 25 15 26 16 27
REMARK H PARENT 16 28
ROOT
ATOM      1  C   UNL     1      85.262  53.881  43.122  1.00  0.00     0.014 C 
ATOM      2  C   UNL     1      85.101  54.826  44.064  1.00  0.00     0.008 C 
ENDROOT
BRANCH   1   3
ATOM      3  C   UNL     1      84.794  52.498  43.330  1.00  0.00     0.059 A 
ATOM      4  C   UNL     1      83.495  52.109  42.944  1.00  0.00     0.133 A 
ATOM      5  C   UNL     1      83.076  50.797  43.179  1.00  0.00     0.094 A 
ATOM      6  C   UNL     1      83.944  49.868  43.767  1.00  0.00     0.137 A 
ATOM      7  C   UNL     1      85.648  51.565  43.954  1.00  0.00     0.145 A 
ATOM      8  C   UNL     1      85.231  50.245  44.164  1.00  0.00     0.103 A 
ATOM      9  O   UNL     1      86.896  52.012  44.329  1.00  0.00    -0.484 OA
ATOM     10  C   UNL     1      86.197  49.295  44.773  1.00  0.00     0.174 C 
ATOM     11  C   UNL     1      87.437  51.326  45.474  1.00  0.00     0.211 C 
ATOM     12  C   UNL     1      87.543  49.844  45.158  1.00  0.00     0.131 C 
ATOM     13  O   UNL     1      85.959  48.098  44.904  1.00  0.00    -0.294 OA
BRANCH   4  14
ATOM     14  O   UNL     1      82.721  53.070  42.340  1.00  0.00    -0.496 OA
ATOM     15  C   UNL     1      81.575  52.635  41.619  1.00  0.00     0.278 C 
ENDBRANCH   4  14
BRANCH   6  16
ATOM     16  O   UNL     1      83.439  48.616  44.006  1.00  0.00    -0.496 OA
ATOM     17  C   UNL     1      82.025  48.598  43.805  1.00  0.00     0.278 C 
ENDBRANCH   6  16
BRANCH  11  18
ATOM     18  C   UNL     1      86.736  51.759  46.758  1.00  0.00    -0.007 A 
ATOM     19  C   UNL     1      86.661  50.956  47.906  1.00  0.00     0.007 A 
ATOM     20  C   UNL     1      86.151  53.037  46.805  1.00  0.00     0.007 A 
ATOM     21  C   UNL     1      86.006  51.413  49.054  1.00  0.00     0.000 A 
ATOM     22  C   UNL     1      85.496  53.492  47.951  1.00  0.00     0.000 A 
ATOM     23  C   UNL     1      85.424  52.678  49.076  1.00  0.00     0.000 A 
ENDBRANCH  11  18
ENDBRANCH   1   3
BRANCH   2  24
ATOM     24  C   UNL     1      85.518  56.273  43.987  1.00  0.00     0.077 C 
ATOM     25  C   UNL     1      84.507  57.064  43.155  1.00  0.00     0.046 C 
ATOM     26  C   UNL     1      85.739  56.968  45.334  1.00  0.00     0.046 C 
BRANCH  24  27
ATOM     27  O   UNL     1      86.762  56.300  43.284  1.00  0.00    -0.386 OA
ATOM     28  H   UNL     1      87.449  56.510  43.941  1.00  0.00     0.211 HD
ENDBRANCH  24  27
ENDBRANCH   2  24
TORSDOF 6
ENDMDL
MODEL 3
REMARK VINA RESULT:    -8.422      2.985      6.699
REMARK INTER + INTRA:         -12.172
REMARK INTER:                 -11.159
REMARK INTRA:                  -1.012
REMARK UNBOUND:                -1.042
REMARK SMILES COc1cc(OC)c2c(c1/C=C/C(C)(C)O)OC(c1ccccc1)CC2=O
REMARK SMILES IDX 11 1 12 2 10 3 3 4 4 5 5 6 9 7 8 8 17 9 26 10 18 11 25 12
REMARK SMILES IDX 27 13 2 14 1 15 6 16 7 17 19 18 20 19 24 20 21 21 23 22
REMARK SMILES IDX 22 23 13 24 14 25 15 26 16 27
REMARK H PARENT 16 28
ROOT
ATOM      1  C   UNL     1      83.418  52.304  42.636  1.00  0.00     0.014 C 
ATOM      2  C   UNL     1      83.561  52.713  41.364  1.00  0.00     0.008 C 
ENDROOT
BRANCH   1   3
ATOM      3  C   UNL     1      83.459  50.875  42.995  1.00  0.00     0.059 A 
ATOM      4  C   UNL     1      82.269  50.130  43.133  1.00  0.00     0.133 A 
ATOM      5  C   UNL     1      82.344  48.784  43.499  1.00  0.00     0.094 A 
ATOM      6  C   UNL     1      83.587  48.170  43.701  1.00  0.00     0.137 A 
ATOM      7  C   UNL     1      84.703  50.257  43.236  1.00  0.00     0.145 A 
ATOM      8  C   UNL     1      84.773  48.901  43.578  1.00  0.00     0.103 A 
ATOM      9  O   UNL     1      85.828  51.043  43.108  1.00  0.00    -0.484 OA
ATOM     10  C   UNL     1      86.116  48.294  43.762  1.00  0.00     0.174 C 
ATOM     11  C   UNL     1      86.920  50.634  43.952  1.00  0.00     0.211 C 
ATOM     12  C   UNL     1      87.303  49.205  43.606  1.00  0.00     0.131 C 
ATOM     13  O   UNL     1      86.282  47.095  43.963  1.00  0.00    -0.294 OA
BRANCH   4  14
ATOM     14  O   UNL     1      81.095  50.797  42.881  1.00  0.00    -0.496 OA
ATOM     15  C   UNL     1      79.879  50.088  43.081  1.00  0.00     0.278 C 
ENDBRANCH   4  14
BRANCH   6  16
ATOM     16  O   UNL     1      83.571  46.860  44.105  1.00  0.00    -0.496 OA
ATOM     17  C   UNL     1      82.263  46.305  43.957  1.00  0.00     0.278 C 
ENDBRANCH   6  16
BRANCH  11  18
ATOM     18  C   UNL     1      86.656  50.994  45.410  1.00  0.00    -0.007 A 
ATOM     19  C   UNL     1      85.929  52.126  45.808  1.00  0.00     0.007 A 
ATOM     20  C   UNL     1      87.148  50.138  46.413  1.00  0.00     0.007 A 
ATOM     21  C   UNL     1      85.720  52.400  47.163  1.00  0.00     0.000 A 
ATOM     22  C   UNL     1      86.939  50.411  47.765  1.00  0.00     0.000 A 
ATOM     23  C   UNL     1      86.224  51.544  48.140  1.00  0.00     0.000 A 
ENDBRANCH  11  18
ENDBRANCH   1   3
BRANCH   2  24
ATOM     24  C   UNL     1      83.550  54.132  40.854  1.00  0.00     0.077 C 
ATOM     25  C   UNL     1      83.798  55.105  42.009  1.00  0.00     0.046 C 
ATOM     26  C   UNL     1      84.521  54.429  39.707  1.00  0.00     0.046 C 
BRANCH  24  27
ATOM     27  O   UNL     1      82.228  54.377  40.368  1.00  0.00    -0.386 OA
ATOM     28  H   UNL     1      81.979  53.602  39.833  1.00  0.00     0.211 HD
ENDBRANCH  24  27
ENDBRANCH   2  24
TORSDOF 6
ENDMDL
MODEL 4
REMARK VINA RESULT:    -8.381      3.453      6.103
REMARK INTER + INTRA:         -12.117
REMARK INTER:                 -10.909
REMARK INTRA:                  -1.208
REMARK UNBOUND:                -1.042
REMARK SMILES COc1cc(OC)c2c(c1/C=C/C(C)(C)O)OC(c1ccccc1)CC2=O
REMARK SMILES IDX 11 1 12 2 10 3 3 4 4 5 5 6 9 7 8 8 17 9 26 10 18 11 25 12
REMARK SMILES IDX 27 13 2 14 1 15 6 16 7 17 19 18 20 19 24 20 21 21 23 22
REMARK SMILES IDX 22 23 13 24 14 25 15 26 16 27
REMARK H PARENT 16 28
ROOT
ATOM      1  C   UNL     1      85.605  46.798  44.058  1.00  0.00     0.014 C 
ATOM      2  C   UNL     1      86.277  46.252  43.031  1.00  0.00     0.008 C 
ENDROOT
BRANCH   1   3
ATOM      3  C   UNL     1      84.940  48.107  43.936  1.00  0.00     0.059 A 
ATOM      4  C   UNL     1      83.698  48.229  43.278  1.00  0.00     0.133 A 
ATOM      5  C   UNL     1      83.109  49.489  43.157  1.00  0.00     0.094 A 
ATOM      6  C   UNL     1      83.727  50.619  43.707  1.00  0.00     0.137 A 
ATOM      7  C   UNL     1      85.572  49.257  44.455  1.00  0.00     0.145 A 
ATOM      8  C   UNL     1      84.964  50.513  44.353  1.00  0.00     0.103 A 
ATOM      9  O   UNL     1      86.794  49.077  45.065  1.00  0.00    -0.484 OA
ATOM     10  C   UNL     1      85.652  51.676  44.971  1.00  0.00     0.174 C 
ATOM     11  C   UNL     1      87.662  50.221  44.972  1.00  0.00     0.211 C 
ATOM     12  C   UNL     1      86.981  51.413  45.624  1.00  0.00     0.131 C 
ATOM     13  O   UNL     1      85.152  52.795  45.020  1.00  0.00    -0.294 OA
BRANCH   4  14
ATOM     14  O   UNL     1      83.141  47.067  42.800  1.00  0.00    -0.496 OA
ATOM     15  C   UNL     1      81.941  46.612  43.411  1.00  0.00     0.278 C 
ENDBRANCH   4  14
BRANCH   6  16
ATOM     16  O   UNL     1      83.107  51.824  43.504  1.00  0.00    -0.496 OA
ATOM     17  C   UNL     1      82.293  51.779  42.331  1.00  0.00     0.278 C 
ENDBRANCH   6  16
BRANCH  11  18
ATOM     18  C   UNL     1      88.226  50.373  43.563  1.00  0.00    -0.007 A 
ATOM     19  C   UNL     1      88.246  51.590  42.865  1.00  0.00     0.007 A 
ATOM     20  C   UNL     1      88.775  49.240  42.934  1.00  0.00     0.007 A 
ATOM     21  C   UNL     1      88.781  51.663  41.575  1.00  0.00     0.000 A 
ATOM     22  C   UNL     1      89.307  49.314  41.646  1.00  0.00     0.000 A 
ATOM     23  C   UNL     1      89.309  50.527  40.966  1.00  0.00     0.000 A 
ENDBRANCH  11  18
ENDBRANCH   1   3
BRANCH   2  24
ATOM     24  C   UNL     1      86.995  44.926  43.008  1.00  0.00     0.077 C 
ATOM     25  C   UNL     1      86.259  43.950  42.088  1.00  0.00     0.046 C 
ATOM     26  C   UNL     1      88.477  44.983  42.626  1.00  0.00     0.046 C 
BRANCH  24  27
ATOM     27  O   UNL     1      86.917  44.401  44.335  1.00  0.00    -0.386 OA
ATOM     28  H   UNL     1      86.967  45.162  44.940  1.00  0.00     0.211 HD
ENDBRANCH  24  27
ENDBRANCH   2  24
TORSDOF 6
ENDMDL
MODEL 5
REMARK VINA RESULT:    -8.074      2.206      5.228
REMARK INTER + INTRA:         -11.712
REMARK INTER:                 -10.688
REMARK INTRA:                  -1.025
REMARK UNBOUND:                -1.042
REMARK SMILES COc1cc(OC)c2c(c1/C=C/C(C)(C)O)OC(c1ccccc1)CC2=O
REMARK SMILES IDX 11 1 12 2 10 3 3 4 4 5 5 6 9 7 8 8 17 9 26 10 18 11 25 12
REMARK SMILES IDX 27 13 2 14 1 15 6 16 7 17 19 18 20 19 24 20 21 21 23 22
REMARK SMILES IDX 22 23 13 24 14 25 15 26 16 27
REMARK H PARENT 16 28
ROOT
ATOM      1  C   UNL     1      87.786  51.474  43.751  1.00  0.00     0.014 C 
ATOM      2  C   UNL     1      87.239  50.378  43.198  1.00  0.00     0.008 C 
ENDROOT
BRANCH   1   3
ATOM      3  C   UNL     1      87.001  52.375  44.613  1.00  0.00     0.059 A 
ATOM      4  C   UNL     1      86.904  52.144  46.002  1.00  0.00     0.133 A 
ATOM      5  C   UNL     1      86.131  53.004  46.785  1.00  0.00     0.094 A 
ATOM      6  C   UNL     1      85.480  54.101  46.207  1.00  0.00     0.137 A 
ATOM      7  C   UNL     1      86.313  53.462  44.036  1.00  0.00     0.145 A 
ATOM      8  C   UNL     1      85.560  54.334  44.830  1.00  0.00     0.103 A 
ATOM      9  O   UNL     1      86.427  53.621  42.672  1.00  0.00    -0.484 OA
ATOM     10  C   UNL     1      84.906  55.493  44.170  1.00  0.00     0.174 C 
ATOM     11  C   UNL     1      85.279  54.240  42.062  1.00  0.00     0.211 C 
ATOM     12  C   UNL     1      85.071  55.612  42.680  1.00  0.00     0.131 C 
ATOM     13  O   UNL     1      84.310  56.365  44.796  1.00  0.00    -0.294 OA
BRANCH   4  14
ATOM     14  O   UNL     1      87.603  51.069  46.495  1.00  0.00    -0.496 OA
ATOM     15  C   UNL     1      86.857  50.015  47.088  1.00  0.00     0.278 C 
ENDBRANCH   4  14
BRANCH   6  16
ATOM     16  O   UNL     1      84.703  54.867  47.037  1.00  0.00    -0.496 OA
ATOM     17  C   UNL     1      83.681  54.074  47.642  1.00  0.00     0.278 C 
ENDBRANCH   6  16
BRANCH  11  18
ATOM     18  C   UNL     1      84.101  53.273  41.996  1.00  0.00    -0.007 A 
ATOM     19  C   UNL     1      84.184  51.925  42.374  1.00  0.00     0.007 A 
ATOM     20  C   UNL     1      82.857  53.761  41.554  1.00  0.00     0.007 A 
ATOM     21  C   UNL     1      83.064  51.091  42.293  1.00  0.00     0.000 A 
ATOM     22  C   UNL     1      81.741  52.929  41.472  1.00  0.00     0.000 A 
ATOM     23  C   UNL     1      81.845  51.592  41.842  1.00  0.00     0.000 A 
ENDBRANCH  11  18
ENDBRANCH   1   3
BRANCH   2  24
ATOM     24  C   UNL     1      87.917  49.367  42.307  1.00  0.00     0.077 C 
ATOM     25  C   UNL     1      89.424  49.368  42.571  1.00  0.00     0.046 C 
ATOM     26  C   UNL     1      87.375  47.938  42.399  1.00  0.00     0.046 C 
BRANCH  24  27
ATOM     27  O   UNL     1      87.719  49.813  40.964  1.00  0.00    -0.386 OA
ATOM     28  H   UNL     1      88.063  50.723  40.918  1.00  0.00     0.211 HD
ENDBRANCH  24  27
ENDBRANCH   2  24
TORSDOF 6
ENDMDL
MODEL 6
REMARK VINA RESULT:    -8.044      2.416      3.448
REMARK INTER + INTRA:         -11.673
REMARK INTER:                 -10.779
REMARK INTRA:                  -0.895
REMARK UNBOUND:                -1.042
REMARK SMILES COc1cc(OC)c2c(c1/C=C/C(C)(C)O)OC(c1ccccc1)CC2=O
REMARK SMILES IDX 11 1 12 2 10 3 3 4 4 5 5 6 9 7 8 8 17 9 26 10 18 11 25 12
REMARK SMILES IDX 27 13 2 14 1 15 6 16 7 17 19 18 20 19 24 20 21 21 23 22
REMARK SMILES IDX 22 23 13 24 14 25 15 26 16 27
REMARK H PARENT 16 28
ROOT
ATOM      1  C   UNL     1      86.739  48.445  43.680  1.00  0.00     0.014 C 
ATOM      2  C   UNL     1      86.238  47.475  42.896  1.00  0.00     0.008 C 
ENDROOT
BRANCH   1   3
ATOM      3  C   UNL     1      87.226  49.717  43.116  1.00  0.00     0.059 A 
ATOM      4  C   UNL     1      88.575  49.867  42.731  1.00  0.00     0.133 A 
ATOM      5  C   UNL     1      89.008  51.094  42.224  1.00  0.00     0.094 A 
ATOM      6  C   UNL     1      88.110  52.158  42.072  1.00  0.00     0.137 A 
ATOM      7  C   UNL     1      86.338  50.805  42.992  1.00  0.00     0.145 A 
ATOM      8  C   UNL     1      86.773  52.024  42.460  1.00  0.00     0.103 A 
ATOM      9  O   UNL     1      85.039  50.603  43.407  1.00  0.00    -0.484 OA
ATOM     10  C   UNL     1      85.775  53.114  42.301  1.00  0.00     0.174 C 
ATOM     11  C   UNL     1      84.392  51.797  43.884  1.00  0.00     0.211 C 
ATOM     12  C   UNL     1      84.375  52.830  42.770  1.00  0.00     0.131 C 
ATOM     13  O   UNL     1      86.037  54.180  41.754  1.00  0.00    -0.294 OA
BRANCH   4  14
ATOM     14  O   UNL     1      89.381  48.765  42.878  1.00  0.00    -0.496 OA
ATOM     15  C   UNL     1      90.448  48.601  41.953  1.00  0.00     0.278 C 
ENDBRANCH   4  14
BRANCH   6  16
ATOM     16  O   UNL     1      88.626  53.342  41.613  1.00  0.00    -0.496 OA
ATOM     17  C   UNL     1      89.728  53.103  40.735  1.00  0.00     0.278 C 
ENDBRANCH   6  16
BRANCH  11  18
ATOM     18  C   UNL     1      84.921  52.201  45.257  1.00  0.00    -0.007 A 
ATOM     19  C   UNL     1      85.783  51.400  46.020  1.00  0.00     0.007 A 
ATOM     20  C   UNL     1      84.543  53.451  45.780  1.00  0.00     0.007 A 
ATOM     21  C   UNL     1      86.236  51.830  47.271  1.00  0.00     0.000 A 
ATOM     22  C   UNL     1      84.993  53.879  47.030  1.00  0.00     0.000 A 
ATOM     23  C   UNL     1      85.841  53.067  47.776  1.00  0.00     0.000 A 
ENDBRANCH  11  18
ENDBRANCH   1   3
BRANCH   2  24
ATOM     24  C   UNL     1      85.699  46.135  43.331  1.00  0.00     0.077 C 
ATOM     25  C   UNL     1      84.479  45.765  42.486  1.00  0.00     0.046 C 
ATOM     26  C   UNL     1      86.708  44.982  43.320  1.00  0.00     0.046 C 
BRANCH  24  27
ATOM     27  O   UNL     1      85.251  46.297  44.679  1.00  0.00    -0.386 OA
ATOM     28  H   UNL     1      84.375  46.720  44.633  1.00  0.00     0.211 HD
ENDBRANCH  24  27
ENDBRANCH   2  24
TORSDOF 6
ENDMDL
MODEL 7
REMARK VINA RESULT:    -7.778      3.001      5.914
REMARK INTER + INTRA:         -11.321
REMARK INTER:                 -10.577
REMARK INTRA:                  -0.744
REMARK UNBOUND:                -1.042
REMARK SMILES COc1cc(OC)c2c(c1/C=C/C(C)(C)O)OC(c1ccccc1)CC2=O
REMARK SMILES IDX 11 1 12 2 10 3 3 4 4 5 5 6 9 7 8 8 17 9 26 10 18 11 25 12
REMARK SMILES IDX 27 13 2 14 1 15 6 16 7 17 19 18 20 19 24 20 21 21 23 22
REMARK SMILES IDX 22 23 13 24 14 25 15 26 16 27
REMARK H PARENT 16 28
ROOT
ATOM      1  C   UNL     1      84.369  48.103  43.802  1.00  0.00     0.014 C 
ATOM      2  C   UNL     1      85.348  47.420  43.185  1.00  0.00     0.008 C 
ENDROOT
BRANCH   1   3
ATOM      3  C   UNL     1      84.378  49.576  43.864  1.00  0.00     0.059 A 
ATOM      4  C   UNL     1      83.346  50.331  43.269  1.00  0.00     0.133 A 
ATOM      5  C   UNL     1      83.400  51.726  43.325  1.00  0.00     0.094 A 
ATOM      6  C   UNL     1      84.451  52.371  43.988  1.00  0.00     0.137 A 
ATOM      7  C   UNL     1      85.451  50.236  44.499  1.00  0.00     0.145 A 
ATOM      8  C   UNL     1      85.486  51.633  44.573  1.00  0.00     0.103 A 
ATOM      9  O   UNL     1      86.440  49.444  45.040  1.00  0.00    -0.484 OA
ATOM     10  C   UNL     1      86.613  52.266  45.305  1.00  0.00     0.174 C 
ATOM     11  C   UNL     1      87.737  50.068  45.059  1.00  0.00     0.211 C 
ATOM     12  C   UNL     1      87.658  51.347  45.875  1.00  0.00     0.131 C 
ATOM     13  O   UNL     1      86.678  53.475  45.509  1.00  0.00    -0.294 OA
BRANCH   4  14
ATOM     14  O   UNL     1      82.333  49.621  42.671  1.00  0.00    -0.496 OA
ATOM     15  C   UNL     1      81.114  50.305  42.410  1.00  0.00     0.278 C 
ENDBRANCH   4  14
BRANCH   6  16
ATOM     16  O   UNL     1      84.455  53.741  43.955  1.00  0.00    -0.496 OA
ATOM     17  C   UNL     1      84.624  54.212  42.617  1.00  0.00     0.278 C 
ENDBRANCH   6  16
BRANCH  11  18
ATOM     18  C   UNL     1      88.344  50.121  43.661  1.00  0.00    -0.007 A 
ATOM     19  C   UNL     1      88.665  48.979  42.912  1.00  0.00     0.007 A 
ATOM     20  C   UNL     1      88.577  51.381  43.078  1.00  0.00     0.007 A 
ATOM     21  C   UNL     1      89.217  49.096  41.633  1.00  0.00     0.000 A 
ATOM     22  C   UNL     1      89.130  51.497  41.802  1.00  0.00     0.000 A 
ATOM     23  C   UNL     1      89.450  50.353  41.079  1.00  0.00     0.000 A 
ENDBRANCH  11  18
ENDBRANCH   1   3
BRANCH   2  24
ATOM     24  C   UNL     1      85.465  45.924  43.037  1.00  0.00     0.077 C 
ATOM     25  C   UNL     1      86.855  45.559  42.511  1.00  0.00     0.046 C 
ATOM     26  C   UNL     1      85.157  45.109  44.296  1.00  0.00     0.046 C 
BRANCH  24  27
ATOM     27  O   UNL     1      84.518  45.540  42.038  1.00  0.00    -0.386 OA
ATOM     28  H   UNL     1      84.848  44.713  41.643  1.00  0.00     0.211 HD
ENDBRANCH  24  27
ENDBRANCH   2  24
TORSDOF 6
ENDMDL
MODEL 8
REMARK VINA RESULT:    -7.750      3.348      6.315
REMARK INTER + INTRA:         -11.283
REMARK INTER:                 -10.241
REMARK INTRA:                  -1.042
REMARK UNBOUND:                -1.042
REMARK SMILES COc1cc(OC)c2c(c1/C=C/C(C)(C)O)OC(c1ccccc1)CC2=O
REMARK SMILES IDX 11 1 12 2 10 3 3 4 4 5 5 6 9 7 8 8 17 9 26 10 18 11 25 12
REMARK SMILES IDX 27 13 2 14 1 15 6 16 7 17 19 18 20 19 24 20 21 21 23 22
REMARK SMILES IDX 22 23 13 24 14 25 15 26 16 27
REMARK H PARENT 16 28
ROOT
ATOM      1  C   UNL     1      83.051  49.327  43.213  1.00  0.00     0.014 C 
ATOM      2  C   UNL     1      82.109  48.816  44.024  1.00  0.00     0.008 C 
ENDROOT
BRANCH   1   3
ATOM      3  C   UNL     1      83.698  50.619  43.502  1.00  0.00     0.059 A 
ATOM      4  C   UNL     1      83.267  51.802  42.867  1.00  0.00     0.133 A 
ATOM      5  C   UNL     1      83.920  53.005  43.145  1.00  0.00     0.094 A 
ATOM      6  C   UNL     1      84.975  53.045  44.066  1.00  0.00     0.137 A 
ATOM      7  C   UNL     1      84.784  50.664  44.401  1.00  0.00     0.145 A 
ATOM      8  C   UNL     1      85.418  51.876  44.694  1.00  0.00     0.103 A 
ATOM      9  O   UNL     1      85.174  49.471  44.971  1.00  0.00    -0.484 OA
ATOM     10  C   UNL     1      86.518  51.867  45.693  1.00  0.00     0.174 C 
ATOM     11  C   UNL     1      86.574  49.417  45.302  1.00  0.00     0.211 C 
ATOM     12  C   UNL     1      86.894  50.535  46.281  1.00  0.00     0.131 C 
ATOM     13  O   UNL     1      87.066  52.892  46.089  1.00  0.00    -0.294 OA
BRANCH   4  14
ATOM     14  O   UNL     1      82.203  51.683  42.006  1.00  0.00    -0.496 OA
ATOM     15  C   UNL     1      81.623  52.881  41.506  1.00  0.00     0.278 C 
ENDBRANCH   4  14
BRANCH   6  16
ATOM     16  O   UNL     1      85.593  54.255  44.246  1.00  0.00    -0.496 OA
ATOM     17  C   UNL     1      85.838  54.886  42.988  1.00  0.00     0.278 C 
ENDBRANCH   6  16
BRANCH  11  18
ATOM     18  C   UNL     1      87.432  49.266  44.050  1.00  0.00    -0.007 A 
ATOM     19  C   UNL     1      88.599  50.008  43.816  1.00  0.00     0.007 A 
ATOM     20  C   UNL     1      87.047  48.316  43.084  1.00  0.00     0.007 A 
ATOM     21  C   UNL     1      89.343  49.819  42.648  1.00  0.00     0.000 A 
ATOM     22  C   UNL     1      87.790  48.129  41.918  1.00  0.00     0.000 A 
ATOM     23  C   UNL     1      88.939  48.882  41.700  1.00  0.00     0.000 A 
ENDBRANCH  11  18
ENDBRANCH   1   3
BRANCH   2  24
ATOM     24  C   UNL     1      81.371  47.511  43.861  1.00  0.00     0.077 C 
ATOM     25  C   UNL     1      79.894  47.779  43.567  1.00  0.00     0.046 C 
ATOM     26  C   UNL     1      81.944  46.556  42.808  1.00  0.00     0.046 C 
BRANCH  24  27
ATOM     27  O   UNL     1      81.441  46.845  45.123  1.00  0.00    -0.386 OA
ATOM     28  H   UNL     1      82.386  46.742  45.333  1.00  0.00     0.211 HD
ENDBRANCH  24  27
ENDBRANCH   2  24
TORSDOF 6
ENDMDL
MODEL 9
REMARK VINA RESULT:    -7.700      2.179      5.362
REMARK INTER + INTRA:         -11.218
REMARK INTER:                 -10.264
REMARK INTRA:                  -0.954
REMARK UNBOUND:                -1.042
REMARK SMILES COc1cc(OC)c2c(c1/C=C/C(C)(C)O)OC(c1ccccc1)CC2=O
REMARK SMILES IDX 11 1 12 2 10 3 3 4 4 5 5 6 9 7 8 8 17 9 26 10 18 11 25 12
REMARK SMILES IDX 27 13 2 14 1 15 6 16 7 17 19 18 20 19 24 20 21 21 23 22
REMARK SMILES IDX 22 23 13 24 14 25 15 26 16 27
REMARK H PARENT 16 28
ROOT
ATOM      1  C   UNL     1      85.304  53.663  44.141  1.00  0.00     0.014 C 
ATOM      2  C   UNL     1      85.735  54.744  44.813  1.00  0.00     0.008 C 
ENDROOT
BRANCH   1   3
ATOM      3  C   UNL     1      86.093  53.071  43.045  1.00  0.00     0.059 A 
ATOM      4  C   UNL     1      86.024  53.598  41.738  1.00  0.00     0.133 A 
ATOM      5  C   UNL     1      86.765  52.997  40.719  1.00  0.00     0.094 A 
ATOM      6  C   UNL     1      87.591  51.900  40.992  1.00  0.00     0.137 A 
ATOM      7  C   UNL     1      86.900  51.944  43.303  1.00  0.00     0.145 A 
ATOM      8  C   UNL     1      87.660  51.362  42.282  1.00  0.00     0.103 A 
ATOM      9  O   UNL     1      86.907  51.461  44.593  1.00  0.00    -0.484 OA
ATOM     10  C   UNL     1      88.535  50.212  42.629  1.00  0.00     0.174 C 
ATOM     11  C   UNL     1      87.150  50.046  44.681  1.00  0.00     0.211 C 
ATOM     12  C   UNL     1      88.499  49.735  44.055  1.00  0.00     0.131 C 
ATOM     13  O   UNL     1      89.311  49.701  41.828  1.00  0.00    -0.294 OA
BRANCH   4  14
ATOM     14  O   UNL     1      85.219  54.698  41.562  1.00  0.00    -0.496 OA
ATOM     15  C   UNL     1      84.330  54.692  40.453  1.00  0.00     0.278 C 
ENDBRANCH   4  14
BRANCH   6  16
ATOM     16  O   UNL     1      88.248  51.339  39.927  1.00  0.00    -0.496 OA
ATOM     17  C   UNL     1      89.249  52.229  39.430  1.00  0.00     0.278 C 
ENDBRANCH   6  16
BRANCH  11  18
ATOM     18  C   UNL     1      85.929  49.247  44.236  1.00  0.00    -0.007 A 
ATOM     19  C   UNL     1      85.985  47.901  43.845  1.00  0.00     0.007 A 
ATOM     20  C   UNL     1      84.674  49.885  44.235  1.00  0.00     0.007 A 
ATOM     21  C   UNL     1      84.827  47.224  43.450  1.00  0.00     0.000 A 
ATOM     22  C   UNL     1      83.520  49.209  43.839  1.00  0.00     0.000 A 
ATOM     23  C   UNL     1      83.597  47.877  43.446  1.00  0.00     0.000 A 
ENDBRANCH  11  18
ENDBRANCH   1   3
BRANCH   2  24
ATOM     24  C   UNL     1      85.043  55.447  45.953  1.00  0.00     0.077 C 
ATOM     25  C   UNL     1      84.240  54.438  46.778  1.00  0.00     0.046 C 
ATOM     26  C   UNL     1      85.954  56.263  46.875  1.00  0.00     0.046 C 
BRANCH  24  27
ATOM     27  O   UNL     1      84.109  56.354  45.364  1.00  0.00    -0.386 OA
ATOM     28  H   UNL     1      84.521  57.236  45.392  1.00  0.00     0.211 HD
ENDBRANCH  24  27
ENDBRANCH   2  24
TORSDOF 6
ENDMDL
