MODEL 1
REMARK VINA RESULT:   -10.741      0.000      0.000
REMARK INTER + INTRA:         -14.666
REMARK INTER:                 -13.842
REMARK INTRA:                  -0.825
REMARK UNBOUND:                -1.100
REMARK SMILES COc1ccc([C@@H]2CC(=O)c3c(O)c4c(c(CC=C(C)C)c3O2)OC(C)(C)C=C4)cc1
REMARK SMILES IDX 7 1 8 2 9 3 10 4 11 5 22 6 23 7 16 8 15 9 14 10 12 11 29 12
REMARK SMILES IDX 28 13 25 14 24 15 26 16 27 17 6 18 3 19 4 20 31 21 5 22
REMARK SMILES IDX 30 23 2 24 1 25 17 26 18 27 19 28 20 29 21 30 13 31
REMARK H PARENT 13 32
ROOT
ATOM      1  C   UNL     1      83.290  47.092  43.063  1.00  0.00     0.211 C 
ATOM      2  C   UNL     1      83.325  45.585  43.253  1.00  0.00     0.131 C 
ATOM      3  C   UNL     1      84.629  45.079  42.708  1.00  0.00     0.174 C 
ATOM      4  O   UNL     1      84.762  43.944  42.255  1.00  0.00    -0.294 OA
ATOM      5  C   UNL     1      85.796  45.985  42.783  1.00  0.00     0.103 A 
ATOM      6  C   UNL     1      85.612  47.263  43.321  1.00  0.00     0.142 A 
ATOM      7  O   UNL     1      84.387  47.701  43.760  1.00  0.00    -0.484 OA
ATOM      8  C   UNL     1      86.701  48.139  43.465  1.00  0.00     0.042 A 
ATOM      9  C   UNL     1      87.971  47.723  43.010  1.00  0.00     0.138 A 
ATOM     10  C   UNL     1      88.159  46.446  42.458  1.00  0.00     0.060 A 
ATOM     11  C   UNL     1      87.064  45.576  42.352  1.00  0.00     0.141 A 
ATOM     12  C   UNL     1      89.494  46.048  42.022  1.00  0.00     0.015 C 
ATOM     13  C   UNL     1      90.471  46.958  42.047  1.00  0.00     0.021 C 
ATOM     14  C   UNL     1      90.260  48.373  42.518  1.00  0.00     0.122 C 
ATOM     15  O   UNL     1      88.994  48.622  43.162  1.00  0.00    -0.483 OA
ATOM     16  C   UNL     1      91.332  48.726  43.555  1.00  0.00     0.061 C 
ATOM     17  C   UNL     1      90.355  49.335  41.329  1.00  0.00     0.061 C 
ENDROOT
BRANCH   1  18
ATOM     18  C   UNL     1      81.994  47.674  43.594  1.00  0.00    -0.007 A 
ATOM     19  C   UNL     1      79.591  48.743  44.617  1.00  0.00     0.118 A 
ATOM     20  C   UNL     1      80.398  49.509  43.778  1.00  0.00     0.047 A 
ATOM     21  C   UNL     1      79.989  47.446  44.946  1.00  0.00     0.047 A 
ATOM     22  C   UNL     1      81.592  48.980  43.274  1.00  0.00     0.011 A 
ATOM     23  C   UNL     1      81.180  46.914  44.443  1.00  0.00     0.011 A 
BRANCH  19  24
ATOM     24  O   UNL     1      78.407  49.137  45.176  1.00  0.00    -0.497 OA
ATOM     25  C   UNL     1      77.848  50.356  44.705  1.00  0.00     0.278 C 
ENDBRANCH  19  24
ENDBRANCH   1  18
BRANCH   8  26
ATOM     26  C   UNL     1      86.499  49.530  44.036  1.00  0.00     0.070 C 
BRANCH  26  27
ATOM     27  C   UNL     1      86.646  49.552  45.535  1.00  0.00    -0.023 C 
ATOM     28  C   UNL     1      87.082  50.558  46.321  1.00  0.00    -0.080 C 
ATOM     29  C   UNL     1      87.153  50.382  47.817  1.00  0.00     0.039 C 
ATOM     30  C   UNL     1      87.534  51.909  45.840  1.00  0.00     0.039 C 
ENDBRANCH  26  27
ENDBRANCH   8  26
BRANCH  11  31
ATOM     31  O   UNL     1      87.274  44.325  41.820  1.00  0.00    -0.506 OA
ATOM     32  H   UNL     1      88.145  43.992  42.131  1.00  0.00     0.293 HD
ENDBRANCH  11  31
TORSDOF 5
ENDMDL
MODEL 2
REMARK VINA RESULT:    -9.329      3.312      5.424
REMARK INTER + INTRA:         -12.884
REMARK INTER:                 -11.884
REMARK INTRA:                  -1.000
REMARK UNBOUND:                -1.100
REMARK SMILES COc1ccc([C@@H]2CC(=O)c3c(O)c4c(c(CC=C(C)C)c3O2)OC(C)(C)C=C4)cc1
REMARK SMILES IDX 7 1 8 2 9 3 10 4 11 5 22 6 23 7 16 8 15 9 14 10 12 11 29 12
REMARK SMILES IDX 28 13 25 14 24 15 26 16 27 17 6 18 3 19 4 20 31 21 5 22
REMARK SMILES IDX 30 23 2 24 1 25 17 26 18 27 19 28 20 29 21 30 13 31
REMARK H PARENT 13 32
ROOT
ATOM      1  C   UNL     1      83.542  50.997  42.745  1.00  0.00     0.211 C 
ATOM      2  C   UNL     1      82.235  50.723  43.471  1.00  0.00     0.131 C 
ATOM      3  C   UNL     1      81.990  49.242  43.439  1.00  0.00     0.174 C 
ATOM      4  O   UNL     1      80.861  48.757  43.468  1.00  0.00    -0.294 OA
ATOM      5  C   UNL     1      83.174  48.355  43.430  1.00  0.00     0.103 A 
ATOM      6  C   UNL     1      84.444  48.941  43.417  1.00  0.00     0.142 A 
ATOM      7  O   UNL     1      84.619  50.303  43.393  1.00  0.00    -0.484 OA
ATOM      8  C   UNL     1      85.598  48.143  43.464  1.00  0.00     0.042 A 
ATOM      9  C   UNL     1      85.452  46.739  43.475  1.00  0.00     0.138 A 
ATOM     10  C   UNL     1      84.180  46.144  43.477  1.00  0.00     0.060 A 
ATOM     11  C   UNL     1      83.040  46.962  43.460  1.00  0.00     0.141 A 
ATOM     12  C   UNL     1      84.074  44.689  43.512  1.00  0.00     0.015 C 
ATOM     13  C   UNL     1      85.192  43.965  43.416  1.00  0.00     0.021 C 
ATOM     14  C   UNL     1      86.559  44.584  43.285  1.00  0.00     0.122 C 
ATOM     15  O   UNL     1      86.610  46.007  43.508  1.00  0.00    -0.483 OA
ATOM     16  C   UNL     1      87.496  43.965  44.329  1.00  0.00     0.061 C 
ATOM     17  C   UNL     1      87.112  44.329  41.879  1.00  0.00     0.061 C 
ENDROOT
BRANCH   1  18
ATOM     18  C   UNL     1      83.854  52.481  42.737  1.00  0.00    -0.007 A 
ATOM     19  C   UNL     1      84.399  55.250  42.711  1.00  0.00     0.118 A 
ATOM     20  C   UNL     1      84.804  54.465  43.790  1.00  0.00     0.047 A 
ATOM     21  C   UNL     1      83.719  54.649  41.651  1.00  0.00     0.047 A 
ATOM     22  C   UNL     1      84.530  53.093  43.804  1.00  0.00     0.011 A 
ATOM     23  C   UNL     1      83.446  53.278  41.661  1.00  0.00     0.011 A 
BRANCH  19  24
ATOM     24  O   UNL     1      84.601  56.595  42.573  1.00  0.00    -0.497 OA
ATOM     25  C   UNL     1      84.866  57.331  43.760  1.00  0.00     0.278 C 
ENDBRANCH  19  24
ENDBRANCH   1  18
BRANCH   8  26
ATOM     26  C   UNL     1      86.976  48.778  43.435  1.00  0.00     0.070 C 
BRANCH  26  27
ATOM     27  C   UNL     1      87.242  49.605  44.666  1.00  0.00    -0.023 C 
ATOM     28  C   UNL     1      87.620  50.897  44.744  1.00  0.00    -0.080 C 
ATOM     29  C   UNL     1      87.835  51.551  46.085  1.00  0.00     0.039 C 
ATOM     30  C   UNL     1      87.870  51.806  43.572  1.00  0.00     0.039 C 
ENDBRANCH  26  27
ENDBRANCH   8  26
BRANCH  11  31
ATOM     31  O   UNL     1      81.804  46.358  43.476  1.00  0.00    -0.506 OA
ATOM     32  H   UNL     1      81.927  45.390  43.596  1.00  0.00     0.293 HD
ENDBRANCH  11  31
TORSDOF 5
ENDMDL
MODEL 3
REMARK VINA RESULT:    -9.130      2.972      6.461
REMARK INTER + INTRA:         -12.632
REMARK INTER:                 -12.008
REMARK INTRA:                  -0.624
REMARK UNBOUND:                -1.100
REMARK SMILES COc1ccc([C@@H]2CC(=O)c3c(O)c4c(c(CC=C(C)C)c3O2)OC(C)(C)C=C4)cc1
REMARK SMILES IDX 7 1 8 2 9 3 10 4 11 5 22 6 23 7 16 8 15 9 14 10 12 11 29 12
REMARK SMILES IDX 28 13 25 14 24 15 26 16 27 17 6 18 3 19 4 20 31 21 5 22
REMARK SMILES IDX 30 23 2 24 1 25 17 26 18 27 19 28 20 29 21 30 13 31
REMARK H PARENT 13 32
ROOT
ATOM      1  C   UNL     1      87.358  51.991  44.008  1.00  0.00     0.211 C 
ATOM      2  C   UNL     1      88.214  52.284  42.788  1.00  0.00     0.131 C 
ATOM      3  C   UNL     1      88.786  50.985  42.300  1.00  0.00     0.174 C 
ATOM      4  O   UNL     1      89.856  50.916  41.699  1.00  0.00    -0.294 OA
ATOM      5  C   UNL     1      87.981  49.763  42.515  1.00  0.00     0.103 A 
ATOM      6  C   UNL     1      86.759  49.880  43.186  1.00  0.00     0.142 A 
ATOM      7  O   UNL     1      86.300  51.084  43.661  1.00  0.00    -0.484 OA
ATOM      8  C   UNL     1      85.933  48.759  43.365  1.00  0.00     0.042 A 
ATOM      9  C   UNL     1      86.383  47.504  42.900  1.00  0.00     0.138 A 
ATOM     10  C   UNL     1      87.614  47.377  42.236  1.00  0.00     0.060 A 
ATOM     11  C   UNL     1      88.409  48.516  42.041  1.00  0.00     0.141 A 
ATOM     12  C   UNL     1      88.030  46.065  41.751  1.00  0.00     0.015 C 
ATOM     13  C   UNL     1      87.283  45.003  42.063  1.00  0.00     0.021 C 
ATOM     14  C   UNL     1      86.023  45.101  42.884  1.00  0.00     0.122 C 
ATOM     15  O   UNL     1      85.545  46.441  43.113  1.00  0.00    -0.483 OA
ATOM     16  C   UNL     1      84.888  44.371  42.156  1.00  0.00     0.061 C 
ATOM     17  C   UNL     1      86.249  44.463  44.259  1.00  0.00     0.061 C 
ENDROOT
BRANCH   1  18
ATOM     18  C   UNL     1      86.745  53.264  44.558  1.00  0.00    -0.007 A 
ATOM     19  C   UNL     1      85.635  55.638  45.606  1.00  0.00     0.118 A 
ATOM     20  C   UNL     1      85.741  55.463  44.227  1.00  0.00     0.047 A 
ATOM     21  C   UNL     1      86.088  54.628  46.457  1.00  0.00     0.047 A 
ATOM     22  C   UNL     1      86.296  54.287  43.708  1.00  0.00     0.011 A 
ATOM     23  C   UNL     1      86.640  53.452  45.942  1.00  0.00     0.011 A 
BRANCH  19  24
ATOM     24  O   UNL     1      85.117  56.732  46.242  1.00  0.00    -0.497 OA
ATOM     25  C   UNL     1      85.187  57.971  45.547  1.00  0.00     0.278 C 
ENDBRANCH  19  24
ENDBRANCH   1  18
BRANCH   8  26
ATOM     26  C   UNL     1      84.614  48.884  44.105  1.00  0.00     0.070 C 
BRANCH  26  27
ATOM     27  C   UNL     1      83.601  49.678  43.323  1.00  0.00    -0.023 C 
ATOM     28  C   UNL     1      82.270  49.484  43.232  1.00  0.00    -0.080 C 
ATOM     29  C   UNL     1      81.419  50.400  42.391  1.00  0.00     0.039 C 
ATOM     30  C   UNL     1      81.500  48.386  43.914  1.00  0.00     0.039 C 
ENDBRANCH  26  27
ENDBRANCH   8  26
BRANCH  11  31
ATOM     31  O   UNL     1      89.605  48.371  41.377  1.00  0.00    -0.506 OA
ATOM     32  H   UNL     1      89.994  49.262  41.230  1.00  0.00     0.293 HD
ENDBRANCH  11  31
TORSDOF 5
ENDMDL
MODEL 4
REMARK VINA RESULT:    -9.053      2.625      7.161
REMARK INTER + INTRA:         -12.534
REMARK INTER:                 -11.629
REMARK INTRA:                  -0.905
REMARK UNBOUND:                -1.100
REMARK SMILES COc1ccc([C@@H]2CC(=O)c3c(O)c4c(c(CC=C(C)C)c3O2)OC(C)(C)C=C4)cc1
REMARK SMILES IDX 7 1 8 2 9 3 10 4 11 5 22 6 23 7 16 8 15 9 14 10 12 11 29 12
REMARK SMILES IDX 28 13 25 14 24 15 26 16 27 17 6 18 3 19 4 20 31 21 5 22
REMARK SMILES IDX 30 23 2 24 1 25 17 26 18 27 19 28 20 29 21 30 13 31
REMARK H PARENT 13 32
ROOT
ATOM      1  C   UNL     1      87.936  47.457  42.088  1.00  0.00     0.211 C 
ATOM      2  C   UNL     1      89.401  47.818  41.908  1.00  0.00     0.131 C 
ATOM      3  C   UNL     1      89.490  49.300  41.689  1.00  0.00     0.174 C 
ATOM      4  O   UNL     1      90.394  49.821  41.039  1.00  0.00    -0.294 OA
ATOM      5  C   UNL     1      88.467  50.147  42.340  1.00  0.00     0.103 A 
ATOM      6  C   UNL     1      87.463  49.523  43.088  1.00  0.00     0.142 A 
ATOM      7  O   UNL     1      87.392  48.157  43.217  1.00  0.00    -0.484 OA
ATOM      8  C   UNL     1      86.502  50.287  43.770  1.00  0.00     0.042 A 
ATOM      9  C   UNL     1      86.540  51.692  43.646  1.00  0.00     0.138 A 
ATOM     10  C   UNL     1      87.538  52.325  42.887  1.00  0.00     0.060 A 
ATOM     11  C   UNL     1      88.506  51.544  42.239  1.00  0.00     0.141 A 
ATOM     12  C   UNL     1      87.554  53.782  42.804  1.00  0.00     0.015 C 
ATOM     13  C   UNL     1      86.544  54.463  43.351  1.00  0.00     0.021 C 
ATOM     14  C   UNL     1      85.395  53.795  44.061  1.00  0.00     0.122 C 
ATOM     15  O   UNL     1      85.571  52.388  44.321  1.00  0.00    -0.483 OA
ATOM     16  C   UNL     1      85.199  54.451  45.433  1.00  0.00     0.061 C 
ATOM     17  C   UNL     1      84.115  53.942  43.231  1.00  0.00     0.061 C 
ENDROOT
BRANCH   1  18
ATOM     18  C   UNL     1      87.770  45.967  42.315  1.00  0.00    -0.007 A 
ATOM     19  C   UNL     1      87.488  43.195  42.765  1.00  0.00     0.118 A 
ATOM     20  C   UNL     1      86.360  43.997  42.599  1.00  0.00     0.047 A 
ATOM     21  C   UNL     1      88.753  43.781  42.710  1.00  0.00     0.047 A 
ATOM     22  C   UNL     1      86.501  45.373  42.380  1.00  0.00     0.011 A 
ATOM     23  C   UNL     1      88.897  45.154  42.489  1.00  0.00     0.011 A 
BRANCH  19  24
ATOM     24  O   UNL     1      87.492  41.846  42.986  1.00  0.00    -0.497 OA
ATOM     25  C   UNL     1      87.565  41.416  44.339  1.00  0.00     0.278 C 
ENDBRANCH  19  24
ENDBRANCH   1  18
BRANCH   8  26
ATOM     26  C   UNL     1      85.405  49.608  44.569  1.00  0.00     0.070 C 
BRANCH  26  27
ATOM     27  C   UNL     1      84.056  49.758  43.916  1.00  0.00    -0.023 C 
ATOM     28  C   UNL     1      83.228  48.793  43.468  1.00  0.00    -0.080 C 
ATOM     29  C   UNL     1      81.905  49.152  42.841  1.00  0.00     0.039 C 
ATOM     30  C   UNL     1      83.499  47.315  43.524  1.00  0.00     0.039 C 
ENDBRANCH  26  27
ENDBRANCH   8  26
BRANCH  11  31
ATOM     31  O   UNL     1      89.482  52.185  41.512  1.00  0.00    -0.506 OA
ATOM     32  H   UNL     1      90.268  52.318  42.087  1.00  0.00     0.293 HD
ENDBRANCH  11  31
TORSDOF 5
ENDMDL
MODEL 5
REMARK VINA RESULT:    -8.910      4.598      8.563
REMARK INTER + INTRA:         -12.354
REMARK INTER:                 -12.000
REMARK INTRA:                  -0.354
REMARK UNBOUND:                -1.100
REMARK SMILES COc1ccc([C@@H]2CC(=O)c3c(O)c4c(c(CC=C(C)C)c3O2)OC(C)(C)C=C4)cc1
REMARK SMILES IDX 7 1 8 2 9 3 10 4 11 5 22 6 23 7 16 8 15 9 14 10 12 11 29 12
REMARK SMILES IDX 28 13 25 14 24 15 26 16 27 17 6 18 3 19 4 20 31 21 5 22
REMARK SMILES IDX 30 23 2 24 1 25 17 26 18 27 19 28 20 29 21 30 13 31
REMARK H PARENT 13 32
ROOT
ATOM      1  C   UNL     1      87.076  51.027  42.153  1.00  0.00     0.211 C 
ATOM      2  C   UNL     1      87.265  51.717  40.813  1.00  0.00     0.131 C 
ATOM      3  C   UNL     1      86.418  52.956  40.807  1.00  0.00     0.174 C 
ATOM      4  O   UNL     1      85.957  53.438  39.774  1.00  0.00    -0.294 OA
ATOM      5  C   UNL     1      86.194  53.635  42.102  1.00  0.00     0.103 A 
ATOM      6  C   UNL     1      86.749  53.069  43.254  1.00  0.00     0.142 A 
ATOM      7  O   UNL     1      87.474  51.903  43.218  1.00  0.00    -0.484 OA
ATOM      8  C   UNL     1      86.611  53.706  44.499  1.00  0.00     0.042 A 
ATOM      9  C   UNL     1      85.860  54.898  44.571  1.00  0.00     0.138 A 
ATOM     10  C   UNL     1      85.290  55.466  43.420  1.00  0.00     0.060 A 
ATOM     11  C   UNL     1      85.466  54.829  42.182  1.00  0.00     0.141 A 
ATOM     12  C   UNL     1      84.541  56.712  43.535  1.00  0.00     0.015 C 
ATOM     13  C   UNL     1      84.315  57.210  44.754  1.00  0.00     0.021 C 
ATOM     14  C   UNL     1      84.811  56.548  46.013  1.00  0.00     0.122 C 
ATOM     15  O   UNL     1      85.746  55.470  45.811  1.00  0.00    -0.483 OA
ATOM     16  C   UNL     1      85.547  57.583  46.872  1.00  0.00     0.061 C 
ATOM     17  C   UNL     1      83.626  55.975  46.799  1.00  0.00     0.061 C 
ENDROOT
BRANCH   1  18
ATOM     18  C   UNL     1      87.905  49.760  42.230  1.00  0.00    -0.007 A 
ATOM     19  C   UNL     1      89.440  47.394  42.336  1.00  0.00     0.118 A 
ATOM     20  C   UNL     1      89.950  48.584  42.853  1.00  0.00     0.047 A 
ATOM     21  C   UNL     1      88.167  47.390  41.765  1.00  0.00     0.047 A 
ATOM     22  C   UNL     1      89.189  49.758  42.796  1.00  0.00     0.011 A 
ATOM     23  C   UNL     1      87.404  48.561  41.709  1.00  0.00     0.011 A 
BRANCH  19  24
ATOM     24  O   UNL     1      90.075  46.183  42.327  1.00  0.00    -0.497 OA
ATOM     25  C   UNL     1      89.279  45.038  42.606  1.00  0.00     0.278 C 
ENDBRANCH  19  24
ENDBRANCH   1  18
BRANCH   8  26
ATOM     26  C   UNL     1      87.202  53.084  45.751  1.00  0.00     0.070 C 
BRANCH  26  27
ATOM     27  C   UNL     1      86.212  53.053  46.886  1.00  0.00    -0.023 C 
ATOM     28  C   UNL     1      86.046  52.105  47.830  1.00  0.00    -0.080 C 
ATOM     29  C   UNL     1      84.991  52.263  48.894  1.00  0.00     0.039 C 
ATOM     30  C   UNL     1      86.841  50.833  47.938  1.00  0.00     0.039 C 
ENDBRANCH  26  27
ENDBRANCH   8  26
BRANCH  11  31
ATOM     31  O   UNL     1      84.910  55.409  41.065  1.00  0.00    -0.506 OA
ATOM     32  H   UNL     1      85.530  56.091  40.722  1.00  0.00     0.293 HD
ENDBRANCH  11  31
TORSDOF 5
ENDMDL
MODEL 6
REMARK VINA RESULT:    -8.795      2.616      6.757
REMARK INTER + INTRA:         -12.208
REMARK INTER:                 -11.443
REMARK INTRA:                  -0.765
REMARK UNBOUND:                -1.100
REMARK SMILES COc1ccc([C@@H]2CC(=O)c3c(O)c4c(c(CC=C(C)C)c3O2)OC(C)(C)C=C4)cc1
REMARK SMILES IDX 7 1 8 2 9 3 10 4 11 5 22 6 23 7 16 8 15 9 14 10 12 11 29 12
REMARK SMILES IDX 28 13 25 14 24 15 26 16 27 17 6 18 3 19 4 20 31 21 5 22
REMARK SMILES IDX 30 23 2 24 1 25 17 26 18 27 19 28 20 29 21 30 13 31
REMARK H PARENT 13 32
ROOT
ATOM      1  C   UNL     1      85.448  47.151  43.739  1.00  0.00     0.211 C 
ATOM      2  C   UNL     1      84.174  47.161  42.910  1.00  0.00     0.131 C 
ATOM      3  C   UNL     1      83.483  48.474  43.140  1.00  0.00     0.174 C 
ATOM      4  O   UNL     1      82.265  48.605  43.048  1.00  0.00    -0.294 OA
ATOM      5  C   UNL     1      84.332  49.649  43.432  1.00  0.00     0.103 A 
ATOM      6  C   UNL     1      85.717  49.467  43.511  1.00  0.00     0.142 A 
ATOM      7  O   UNL     1      86.301  48.235  43.345  1.00  0.00    -0.484 OA
ATOM      8  C   UNL     1      86.569  50.561  43.731  1.00  0.00     0.042 A 
ATOM      9  C   UNL     1      85.997  51.838  43.920  1.00  0.00     0.138 A 
ATOM     10  C   UNL     1      84.608  52.026  43.854  1.00  0.00     0.060 A 
ATOM     11  C   UNL     1      83.777  50.924  43.603  1.00  0.00     0.141 A 
ATOM     12  C   UNL     1      84.061  53.367  44.032  1.00  0.00     0.015 C 
ATOM     13  C   UNL     1      84.891  54.354  44.376  1.00  0.00     0.021 C 
ATOM     14  C   UNL     1      86.370  54.148  44.577  1.00  0.00     0.122 C 
ATOM     15  O   UNL     1      86.873  52.868  44.144  1.00  0.00    -0.483 OA
ATOM     16  C   UNL     1      87.142  55.195  43.766  1.00  0.00     0.061 C 
ATOM     17  C   UNL     1      86.717  54.288  46.063  1.00  0.00     0.061 C 
ENDROOT
BRANCH   1  18
ATOM     18  C   UNL     1      86.201  45.848  43.555  1.00  0.00    -0.007 A 
ATOM     19  C   UNL     1      87.570  43.404  43.204  1.00  0.00     0.118 A 
ATOM     20  C   UNL     1      88.082  44.580  42.657  1.00  0.00     0.047 A 
ATOM     21  C   UNL     1      86.373  43.452  43.920  1.00  0.00     0.047 A 
ATOM     22  C   UNL     1      87.401  45.791  42.829  1.00  0.00     0.011 A 
ATOM     23  C   UNL     1      85.691  44.660  44.095  1.00  0.00     0.011 A 
BRANCH  19  24
ATOM     24  O   UNL     1      88.132  42.161  43.110  1.00  0.00    -0.497 OA
ATOM     25  C   UNL     1      87.788  41.223  44.122  1.00  0.00     0.278 C 
ENDBRANCH  19  24
ENDBRANCH   1  18
BRANCH   8  26
ATOM     26  C   UNL     1      88.070  50.361  43.831  1.00  0.00     0.070 C 
BRANCH  26  27
ATOM     27  C   UNL     1      88.622  49.624  42.638  1.00  0.00    -0.023 C 
ATOM     28  C   UNL     1      89.751  48.893  42.552  1.00  0.00    -0.080 C 
ATOM     29  C   UNL     1      90.131  48.225  41.255  1.00  0.00     0.039 C 
ATOM     30  C   UNL     1      90.730  48.663  43.670  1.00  0.00     0.039 C 
ENDBRANCH  26  27
ENDBRANCH   8  26
BRANCH  11  31
ATOM     31  O   UNL     1      82.420  51.133  43.529  1.00  0.00    -0.506 OA
ATOM     32  H   UNL     1      81.959  50.283  43.708  1.00  0.00     0.293 HD
ENDBRANCH  11  31
TORSDOF 5
ENDMDL
MODEL 7
REMARK VINA RESULT:    -8.409      3.823      6.983
REMARK INTER + INTRA:         -11.721
REMARK INTER:                 -10.777
REMARK INTRA:                  -0.945
REMARK UNBOUND:                -1.100
REMARK SMILES COc1ccc([C@@H]2CC(=O)c3c(O)c4c(c(CC=C(C)C)c3O2)OC(C)(C)C=C4)cc1
REMARK SMILES IDX 7 1 8 2 9 3 10 4 11 5 22 6 23 7 16 8 15 9 14 10 12 11 29 12
REMARK SMILES IDX 28 13 25 14 24 15 26 16 27 17 6 18 3 19 4 20 31 21 5 22
REMARK SMILES IDX 30 23 2 24 1 25 17 26 18 27 19 28 20 29 21 30 13 31
REMARK H PARENT 13 32
ROOT
ATOM      1  C   UNL     1      83.577  49.730  43.433  1.00  0.00     0.211 C 
ATOM      2  C   UNL     1      82.926  49.892  42.068  1.00  0.00     0.131 C 
ATOM      3  C   UNL     1      82.554  51.336  41.901  1.00  0.00     0.174 C 
ATOM      4  O   UNL     1      81.614  51.700  41.198  1.00  0.00    -0.294 OA
ATOM      5  C   UNL     1      83.403  52.342  42.576  1.00  0.00     0.103 A 
ATOM      6  C   UNL     1      84.476  51.892  43.354  1.00  0.00     0.142 A 
ATOM      7  O   UNL     1      84.747  50.556  43.520  1.00  0.00    -0.484 OA
ATOM      8  C   UNL     1      85.344  52.809  43.968  1.00  0.00     0.042 A 
ATOM      9  C   UNL     1      85.083  54.189  43.827  1.00  0.00     0.138 A 
ATOM     10  C   UNL     1      84.002  54.647  43.058  1.00  0.00     0.060 A 
ATOM     11  C   UNL     1      83.165  53.714  42.427  1.00  0.00     0.141 A 
ATOM     12  C   UNL     1      83.782  56.083  42.919  1.00  0.00     0.015 C 
ATOM     13  C   UNL     1      84.545  56.916  43.631  1.00  0.00     0.021 C 
ATOM     14  C   UNL     1      85.630  56.440  44.562  1.00  0.00     0.122 C 
ATOM     15  O   UNL     1      85.953  55.040  44.459  1.00  0.00    -0.483 OA
ATOM     16  C   UNL     1      86.929  57.192  44.250  1.00  0.00     0.061 C 
ATOM     17  C   UNL     1      85.219  56.701  46.015  1.00  0.00     0.061 C 
ENDROOT
BRANCH   1  18
ATOM     18  C   UNL     1      83.980  48.289  43.671  1.00  0.00    -0.007 A 
ATOM     19  C   UNL     1      84.713  45.594  44.083  1.00  0.00     0.118 A 
ATOM     20  C   UNL     1      85.658  46.609  44.233  1.00  0.00     0.047 A 
ATOM     21  C   UNL     1      83.407  45.929  43.724  1.00  0.00     0.047 A 
ATOM     22  C   UNL     1      85.294  47.944  44.025  1.00  0.00     0.011 A 
ATOM     23  C   UNL     1      83.040  47.262  43.517  1.00  0.00     0.011 A 
BRANCH  19  24
ATOM     24  O   UNL     1      84.934  44.256  44.255  1.00  0.00    -0.497 OA
ATOM     25  C   UNL     1      86.129  43.725  43.695  1.00  0.00     0.278 C 
ENDBRANCH  19  24
ENDBRANCH   1  18
BRANCH   8  26
ATOM     26  C   UNL     1      86.498  52.322  44.824  1.00  0.00     0.070 C 
BRANCH  26  27
ATOM     27  C   UNL     1      86.147  52.303  46.289  1.00  0.00    -0.023 C 
ATOM     28  C   UNL     1      86.606  51.478  47.252  1.00  0.00    -0.080 C 
ATOM     29  C   UNL     1      86.129  51.626  48.674  1.00  0.00     0.039 C 
ATOM     30  C   UNL     1      87.593  50.362  47.048  1.00  0.00     0.039 C 
ENDBRANCH  26  27
ENDBRANCH   8  26
BRANCH  11  31
ATOM     31  O   UNL     1      82.119  54.184  41.668  1.00  0.00    -0.506 OA
ATOM     32  H   UNL     1      81.302  54.172  42.214  1.00  0.00     0.293 HD
ENDBRANCH  11  31
TORSDOF 5
ENDMDL
MODEL 8
REMARK VINA RESULT:    -8.271      4.200      8.183
REMARK INTER + INTRA:         -11.547
REMARK INTER:                 -10.654
REMARK INTRA:                  -0.893
REMARK UNBOUND:                -1.100
REMARK SMILES COc1ccc([C@@H]2CC(=O)c3c(O)c4c(c(CC=C(C)C)c3O2)OC(C)(C)C=C4)cc1
REMARK SMILES IDX 7 1 8 2 9 3 10 4 11 5 22 6 23 7 16 8 15 9 14 10 12 11 29 12
REMARK SMILES IDX 28 13 25 14 24 15 26 16 27 17 6 18 3 19 4 20 31 21 5 22
REMARK SMILES IDX 30 23 2 24 1 25 17 26 18 27 19 28 20 29 21 30 13 31
REMARK H PARENT 13 32
ROOT
ATOM      1  C   UNL     1      86.887  50.069  44.933  1.00  0.00     0.211 C 
ATOM      2  C   UNL     1      86.384  49.721  46.324  1.00  0.00     0.131 C 
ATOM      3  C   UNL     1      86.357  50.984  47.136  1.00  0.00     0.174 C 
ATOM      4  O   UNL     1      86.493  50.989  48.357  1.00  0.00    -0.294 OA
ATOM      5  C   UNL     1      86.098  52.250  46.416  1.00  0.00     0.103 A 
ATOM      6  C   UNL     1      85.929  52.204  45.029  1.00  0.00     0.142 A 
ATOM      7  O   UNL     1      86.015  51.031  44.321  1.00  0.00    -0.484 OA
ATOM      8  C   UNL     1      85.625  53.372  44.309  1.00  0.00     0.042 A 
ATOM      9  C   UNL     1      85.544  54.597  45.006  1.00  0.00     0.138 A 
ATOM     10  C   UNL     1      85.724  54.651  46.397  1.00  0.00     0.060 A 
ATOM     11  C   UNL     1      85.996  53.468  47.100  1.00  0.00     0.141 A 
ATOM     12  C   UNL     1      85.609  55.935  47.081  1.00  0.00     0.015 C 
ATOM     13  C   UNL     1      85.458  57.038  46.345  1.00  0.00     0.021 C 
ATOM     14  C   UNL     1      85.389  57.016  44.840  1.00  0.00     0.122 C 
ATOM     15  O   UNL     1      85.259  55.706  44.253  1.00  0.00    -0.483 OA
ATOM     16  C   UNL     1      84.158  57.804  44.378  1.00  0.00     0.061 C 
ATOM     17  C   UNL     1      86.656  57.648  44.253  1.00  0.00     0.061 C 
ENDROOT
BRANCH   1  18
ATOM     18  C   UNL     1      86.941  48.834  44.054  1.00  0.00    -0.007 A 
ATOM     19  C   UNL     1      87.004  46.539  42.413  1.00  0.00     0.118 A 
ATOM     20  C   UNL     1      87.950  47.549  42.243  1.00  0.00     0.047 A 
ATOM     21  C   UNL     1      86.028  46.681  43.400  1.00  0.00     0.047 A 
ATOM     22  C   UNL     1      87.916  48.689  43.055  1.00  0.00     0.011 A 
ATOM     23  C   UNL     1      85.992  47.817  44.213  1.00  0.00     0.011 A 
BRANCH  19  24
ATOM     24  O   UNL     1      86.925  45.381  41.691  1.00  0.00    -0.497 OA
ATOM     25  C   UNL     1      86.433  44.232  42.371  1.00  0.00     0.278 C 
ENDBRANCH  19  24
ENDBRANCH   1  18
BRANCH   8  26
ATOM     26  C   UNL     1      85.456  53.324  42.801  1.00  0.00     0.070 C 
BRANCH  26  27
ATOM     27  C   UNL     1      84.005  53.306  42.396  1.00  0.00    -0.023 C 
ATOM     28  C   UNL     1      83.370  54.104  41.514  1.00  0.00    -0.080 C 
ATOM     29  C   UNL     1      81.899  53.922  41.242  1.00  0.00     0.039 C 
ATOM     30  C   UNL     1      84.005  55.221  40.733  1.00  0.00     0.039 C 
ENDBRANCH  26  27
ENDBRANCH   8  26
BRANCH  11  31
ATOM     31  O   UNL     1      86.156  53.542  48.465  1.00  0.00    -0.506 OA
ATOM     32  H   UNL     1      87.028  53.954  48.658  1.00  0.00     0.293 HD
ENDBRANCH  11  31
TORSDOF 5
ENDMDL
MODEL 9
REMARK VINA RESULT:    -8.179      3.329      4.587
REMARK INTER + INTRA:         -11.431
REMARK INTER:                 -10.330
REMARK INTRA:                  -1.100
REMARK UNBOUND:                -1.100
REMARK SMILES COc1ccc([C@@H]2CC(=O)c3c(O)c4c(c(CC=C(C)C)c3O2)OC(C)(C)C=C4)cc1
REMARK SMILES IDX 7 1 8 2 9 3 10 4 11 5 22 6 23 7 16 8 15 9 14 10 12 11 29 12
REMARK SMILES IDX 28 13 25 14 24 15 26 16 27 17 6 18 3 19 4 20 31 21 5 22
REMARK SMILES IDX 30 23 2 24 1 25 17 26 18 27 19 28 20 29 21 30 13 31
REMARK H PARENT 13 32
ROOT
ATOM      1  C   UNL     1      83.875  49.804  42.998  1.00  0.00     0.211 C 
ATOM      2  C   UNL     1      84.486  49.286  44.290  1.00  0.00     0.131 C 
ATOM      3  C   UNL     1      85.968  49.168  44.087  1.00  0.00     0.174 C 
ATOM      4  O   UNL     1      86.657  48.353  44.696  1.00  0.00    -0.294 OA
ATOM      5  C   UNL     1      86.606  50.122  43.153  1.00  0.00     0.103 A 
ATOM      6  C   UNL     1      85.794  51.049  42.491  1.00  0.00     0.142 A 
ATOM      7  O   UNL     1      84.432  51.085  42.669  1.00  0.00    -0.484 OA
ATOM      8  C   UNL     1      86.359  52.011  41.638  1.00  0.00     0.042 A 
ATOM      9  C   UNL     1      87.754  51.991  41.423  1.00  0.00     0.138 A 
ATOM     10  C   UNL     1      88.573  51.056  42.075  1.00  0.00     0.060 A 
ATOM     11  C   UNL     1      87.991  50.123  42.947  1.00  0.00     0.141 A 
ATOM     12  C   UNL     1      90.014  51.085  41.842  1.00  0.00     0.015 C 
ATOM     13  C   UNL     1      90.493  51.922  40.920  1.00  0.00     0.021 C 
ATOM     14  C   UNL     1      89.615  52.847  40.117  1.00  0.00     0.122 C 
ATOM     15  O   UNL     1      88.251  52.942  40.571  1.00  0.00    -0.483 OA
ATOM     16  C   UNL     1      90.180  54.270  40.190  1.00  0.00     0.061 C 
ATOM     17  C   UNL     1      89.572  52.383  38.657  1.00  0.00     0.061 C 
ENDROOT
BRANCH   1  18
ATOM     18  C   UNL     1      82.371  49.947  43.131  1.00  0.00    -0.007 A 
ATOM     19  C   UNL     1      79.576  50.213  43.417  1.00  0.00     0.118 A 
ATOM     20  C   UNL     1      80.275  51.049  42.547  1.00  0.00     0.047 A 
ATOM     21  C   UNL     1      80.277  49.250  44.144  1.00  0.00     0.047 A 
ATOM     22  C   UNL     1      81.662  50.919  42.409  1.00  0.00     0.011 A 
ATOM     23  C   UNL     1      81.662  49.116  44.007  1.00  0.00     0.011 A 
BRANCH  19  24
ATOM     24  O   UNL     1      78.228  50.234  43.646  1.00  0.00    -0.497 OA
ATOM     25  C   UNL     1      77.800  50.004  44.982  1.00  0.00     0.278 C 
ENDBRANCH  19  24
ENDBRANCH   1  18
BRANCH   8  26
ATOM     26  C   UNL     1      85.476  53.007  40.909  1.00  0.00     0.070 C 
BRANCH  26  27
ATOM     27  C   UNL     1      85.186  54.224  41.748  1.00  0.00    -0.023 C 
ATOM     28  C   UNL     1      84.010  54.858  41.930  1.00  0.00    -0.080 C 
ATOM     29  C   UNL     1      83.926  56.070  42.821  1.00  0.00     0.039 C 
ATOM     30  C   UNL     1      82.701  54.467  41.300  1.00  0.00     0.039 C 
ENDBRANCH  26  27
ENDBRANCH   8  26
BRANCH  11  31
ATOM     31  O   UNL     1      88.814  49.225  43.585  1.00  0.00    -0.506 OA
ATOM     32  H   UNL     1      88.256  48.568  44.059  1.00  0.00     0.293 HD
ENDBRANCH  11  31
TORSDOF 5
ENDMDL
