MODEL 1
REMARK VINA RESULT:    -9.363      0.000      0.000
REMARK INTER + INTRA:         -12.655
REMARK INTER:                 -11.952
REMARK INTRA:                  -0.703
REMARK UNBOUND:                -0.829
REMARK SMILES CC(C)=CCc1cc(-c2cc(=O)c3c(O)cc(O)cc3o2)ccc1O
REMARK SMILES IDX 6 1 7 2 8 3 22 4 23 5 24 6 5 7 4 8 2 9 1 10 3 11 25 12 9 14
REMARK SMILES IDX 10 15 21 16 11 17 20 18 12 19 13 20 19 21 14 22 17 23 16 24
REMARK SMILES IDX 15 25 18 27
REMARK H PARENT 25 13 15 26 18 28
ROOT
ATOM      1  C   UNL     1      87.190  46.047  42.400  1.00  0.00    -0.002 A 
ATOM      2  C   UNL     1      85.910  46.601  42.591  1.00  0.00     0.019 A 
ATOM      3  C   UNL     1      84.915  45.915  43.309  1.00  0.00     0.018 A 
ATOM      4  C   UNL     1      85.228  44.664  43.856  1.00  0.00     0.016 A 
ATOM      5  C   UNL     1      86.495  44.102  43.679  1.00  0.00     0.047 A 
ATOM      6  C   UNL     1      87.464  44.793  42.954  1.00  0.00     0.119 A 
ENDROOT
BRANCH   1   7
ATOM      7  C   UNL     1      88.237  46.830  41.641  1.00  0.00     0.066 C 
BRANCH   7   8
ATOM      8  C   UNL     1      88.175  48.307  41.935  1.00  0.00    -0.023 C 
ATOM      9  C   UNL     1      89.197  49.172  42.086  1.00  0.00    -0.080 C 
ATOM     10  C   UNL     1      88.932  50.629  42.367  1.00  0.00     0.039 C 
ATOM     11  C   UNL     1      90.656  48.815  42.015  1.00  0.00     0.039 C 
ENDBRANCH   7   8
ENDBRANCH   1   7
BRANCH   6  12
ATOM     12  O   UNL     1      88.702  44.244  42.779  1.00  0.00    -0.508 OA
ATOM     13  H   UNL     1      88.843  43.564  43.457  1.00  0.00     0.293 HD
ENDBRANCH   6  12
BRANCH   3  14
ATOM     14  C   UNL     1      83.575  46.497  43.519  1.00  0.00     0.138 C 
ATOM     15  C   UNL     1      82.621  45.841  44.194  1.00  0.00     0.100 C 
ATOM     16  O   UNL     1      83.419  47.768  42.986  1.00  0.00    -0.456 OA
ATOM     17  C   UNL     1      81.310  46.480  44.378  1.00  0.00     0.197 C 
ATOM     18  C   UNL     1      82.208  48.396  43.134  1.00  0.00     0.146 A 
ATOM     19  O   UNL     1      80.399  45.922  44.981  1.00  0.00    -0.289 OA
ATOM     20  C   UNL     1      81.133  47.819  43.805  1.00  0.00     0.107 A 
ATOM     21  C   UNL     1      82.080  49.668  42.577  1.00  0.00     0.094 A 
ATOM     22  C   UNL     1      79.925  48.515  43.923  1.00  0.00     0.134 A 
ATOM     23  C   UNL     1      80.873  50.352  42.699  1.00  0.00     0.123 A 
ATOM     24  C   UNL     1      79.790  49.786  43.368  1.00  0.00     0.093 A 
BRANCH  22  25
ATOM     25  O   UNL     1      78.831  48.006  44.570  1.00  0.00    -0.507 OA
ATOM     26  H   UNL     1      78.041  48.161  44.003  1.00  0.00     0.293 HD
ENDBRANCH  22  25
BRANCH  23  27
ATOM     27  O   UNL     1      80.790  51.593  42.141  1.00  0.00    -0.508 OA
ATOM     28  H   UNL     1      80.293  51.530  41.307  1.00  0.00     0.293 HD
ENDBRANCH  23  27
ENDBRANCH   3  14
TORSDOF 6
ENDMDL
MODEL 2
REMARK VINA RESULT:    -9.192      5.881      7.364
REMARK INTER + INTRA:         -12.439
REMARK INTER:                 -11.607
REMARK INTRA:                  -0.832
REMARK UNBOUND:                -0.829
REMARK SMILES CC(C)=CCc1cc(-c2cc(=O)c3c(O)cc(O)cc3o2)ccc1O
REMARK SMILES IDX 6 1 7 2 8 3 22 4 23 5 24 6 5 7 4 8 2 9 1 10 3 11 25 12 9 14
REMARK SMILES IDX 10 15 21 16 11 17 20 18 12 19 13 20 19 21 14 22 17 23 16 24
REMARK SMILES IDX 15 25 18 27
REMARK H PARENT 25 13 15 26 18 28
ROOT
ATOM      1  C   UNL     1      88.382  50.755  42.921  1.00  0.00    -0.002 A 
ATOM      2  C   UNL     1      87.636  51.888  43.299  1.00  0.00     0.019 A 
ATOM      3  C   UNL     1      87.135  52.032  44.604  1.00  0.00     0.018 A 
ATOM      4  C   UNL     1      87.412  51.027  45.541  1.00  0.00     0.016 A 
ATOM      5  C   UNL     1      88.154  49.899  45.182  1.00  0.00     0.047 A 
ATOM      6  C   UNL     1      88.633  49.770  43.880  1.00  0.00     0.119 A 
ENDROOT
BRANCH   1   7
ATOM      7  C   UNL     1      88.921  50.653  41.511  1.00  0.00     0.066 C 
BRANCH   7   8
ATOM      8  C   UNL     1      89.809  51.815  41.151  1.00  0.00    -0.023 C 
ATOM      9  C   UNL     1      89.646  52.715  40.161  1.00  0.00    -0.080 C 
ATOM     10  C   UNL     1      90.644  53.827  39.962  1.00  0.00     0.039 C 
ATOM     11  C   UNL     1      88.517  52.720  39.168  1.00  0.00     0.039 C 
ENDBRANCH   7   8
ENDBRANCH   1   7
BRANCH   6  12
ATOM     12  O   UNL     1      89.357  48.667  43.528  1.00  0.00    -0.508 OA
ATOM     13  H   UNL     1      90.052  48.932  42.905  1.00  0.00     0.293 HD
ENDBRANCH   6  12
BRANCH   3  14
ATOM     14  C   UNL     1      86.360  53.222  45.006  1.00  0.00     0.138 C 
ATOM     15  C   UNL     1      85.388  53.150  45.926  1.00  0.00     0.100 C 
ATOM     16  O   UNL     1      86.749  54.393  44.373  1.00  0.00    -0.456 OA
ATOM     17  C   UNL     1      84.659  54.374  46.291  1.00  0.00     0.197 C 
ATOM     18  C   UNL     1      86.090  55.555  44.685  1.00  0.00     0.146 A 
ATOM     19  O   UNL     1      83.757  54.364  47.122  1.00  0.00    -0.289 OA
ATOM     20  C   UNL     1      85.057  55.614  45.616  1.00  0.00     0.107 A 
ATOM     21  C   UNL     1      86.498  56.713  44.023  1.00  0.00     0.094 A 
ATOM     22  C   UNL     1      84.428  56.833  45.890  1.00  0.00     0.134 A 
ATOM     23  C   UNL     1      85.864  57.921  44.302  1.00  0.00     0.123 A 
ATOM     24  C   UNL     1      84.830  57.993  45.231  1.00  0.00     0.093 A 
BRANCH  22  25
ATOM     25  O   UNL     1      83.407  56.960  46.793  1.00  0.00    -0.507 OA
ATOM     26  H   UNL     1      82.829  56.167  46.716  1.00  0.00     0.293 HD
ENDBRANCH  22  25
BRANCH  23  27
ATOM     27  O   UNL     1      86.294  59.030  43.633  1.00  0.00    -0.508 OA
ATOM     28  H   UNL     1      87.247  58.941  43.459  1.00  0.00     0.293 HD
ENDBRANCH  23  27
ENDBRANCH   3  14
TORSDOF 6
ENDMDL
MODEL 3
REMARK VINA RESULT:    -9.037      5.901      6.918
REMARK INTER + INTRA:         -12.243
REMARK INTER:                 -11.393
REMARK INTRA:                  -0.851
REMARK UNBOUND:                -0.829
REMARK SMILES CC(C)=CCc1cc(-c2cc(=O)c3c(O)cc(O)cc3o2)ccc1O
REMARK SMILES IDX 6 1 7 2 8 3 22 4 23 5 24 6 5 7 4 8 2 9 1 10 3 11 25 12 9 14
REMARK SMILES IDX 10 15 21 16 11 17 20 18 12 19 13 20 19 21 14 22 17 23 16 24
REMARK SMILES IDX 15 25 18 27
REMARK H PARENT 25 13 15 26 18 28
ROOT
ATOM      1  C   UNL     1      88.995  51.204  41.476  1.00  0.00    -0.002 A 
ATOM      2  C   UNL     1      88.591  51.281  42.823  1.00  0.00     0.019 A 
ATOM      3  C   UNL     1      87.445  51.999  43.203  1.00  0.00     0.018 A 
ATOM      4  C   UNL     1      86.689  52.629  42.206  1.00  0.00     0.016 A 
ATOM      5  C   UNL     1      87.074  52.558  40.865  1.00  0.00     0.047 A 
ATOM      6  C   UNL     1      88.220  51.850  40.509  1.00  0.00     0.119 A 
ENDROOT
BRANCH   1   7
ATOM      7  C   UNL     1      90.222  50.400  41.109  1.00  0.00     0.066 C 
BRANCH   7   8
ATOM      8  C   UNL     1      90.033  48.924  41.344  1.00  0.00    -0.023 C 
ATOM      9  C   UNL     1      90.534  48.166  42.338  1.00  0.00    -0.080 C 
ATOM     10  C   UNL     1      90.220  46.693  42.414  1.00  0.00     0.039 C 
ATOM     11  C   UNL     1      91.438  48.657  43.436  1.00  0.00     0.039 C 
ENDBRANCH   7   8
ENDBRANCH   1   7
BRANCH   6  12
ATOM     12  O   UNL     1      88.597  51.782  39.198  1.00  0.00    -0.508 OA
ATOM     13  H   UNL     1      87.876  52.122  38.645  1.00  0.00     0.293 HD
ENDBRANCH   6  12
BRANCH   3  14
ATOM     14  C   UNL     1      87.014  52.075  44.613  1.00  0.00     0.138 C 
ATOM     15  C   UNL     1      87.366  51.141  45.507  1.00  0.00     0.100 C 
ATOM     16  O   UNL     1      86.254  53.196  44.914  1.00  0.00    -0.456 OA
ATOM     17  C   UNL     1      86.914  51.280  46.899  1.00  0.00     0.197 C 
ATOM     18  C   UNL     1      85.811  53.359  46.202  1.00  0.00     0.146 A 
ATOM     19  O   UNL     1      87.201  50.451  47.756  1.00  0.00    -0.289 OA
ATOM     20  C   UNL     1      86.099  52.456  47.222  1.00  0.00     0.107 A 
ATOM     21  C   UNL     1      85.040  54.490  46.470  1.00  0.00     0.094 A 
ATOM     22  C   UNL     1      85.617  52.683  48.516  1.00  0.00     0.134 A 
ATOM     23  C   UNL     1      84.565  54.705  47.761  1.00  0.00     0.123 A 
ATOM     24  C   UNL     1      84.846  53.810  48.790  1.00  0.00     0.093 A 
BRANCH  22  25
ATOM     25  O   UNL     1      85.864  51.836  49.563  1.00  0.00    -0.507 OA
ATOM     26  H   UNL     1      86.807  51.940  49.826  1.00  0.00     0.293 HD
ENDBRANCH  22  25
BRANCH  23  27
ATOM     27  O   UNL     1      83.815  55.824  47.981  1.00  0.00    -0.508 OA
ATOM     28  H   UNL     1      84.344  56.460  48.495  1.00  0.00     0.293 HD
ENDBRANCH  23  27
ENDBRANCH   3  14
TORSDOF 6
ENDMDL
MODEL 4
REMARK VINA RESULT:    -8.899      5.954      7.327
REMARK INTER + INTRA:         -12.069
REMARK INTER:                 -11.275
REMARK INTRA:                  -0.794
REMARK UNBOUND:                -0.829
REMARK SMILES CC(C)=CCc1cc(-c2cc(=O)c3c(O)cc(O)cc3o2)ccc1O
REMARK SMILES IDX 6 1 7 2 8 3 22 4 23 5 24 6 5 7 4 8 2 9 1 10 3 11 25 12 9 14
REMARK SMILES IDX 10 15 21 16 11 17 20 18 12 19 13 20 19 21 14 22 17 23 16 24
REMARK SMILES IDX 15 25 18 27
REMARK H PARENT 25 13 15 26 18 28
ROOT
ATOM      1  C   UNL     1      88.919  50.641  42.423  1.00  0.00    -0.002 A 
ATOM      2  C   UNL     1      88.186  51.816  42.678  1.00  0.00     0.019 A 
ATOM      3  C   UNL     1      87.464  51.984  43.872  1.00  0.00     0.018 A 
ATOM      4  C   UNL     1      87.501  50.959  44.825  1.00  0.00     0.016 A 
ATOM      5  C   UNL     1      88.227  49.788  44.589  1.00  0.00     0.047 A 
ATOM      6  C   UNL     1      88.929  49.637  43.394  1.00  0.00     0.119 A 
ENDROOT
BRANCH   1   7
ATOM      7  C   UNL     1      89.702  50.513  41.135  1.00  0.00     0.066 C 
BRANCH   7   8
ATOM      8  C   UNL     1      90.366  51.805  40.736  1.00  0.00    -0.023 C 
ATOM      9  C   UNL     1      89.920  52.744  39.879  1.00  0.00    -0.080 C 
ATOM     10  C   UNL     1      90.728  53.989  39.615  1.00  0.00     0.039 C 
ATOM     11  C   UNL     1      88.635  52.671  39.101  1.00  0.00     0.039 C 
ENDBRANCH   7   8
ENDBRANCH   1   7
BRANCH   6  12
ATOM     12  O   UNL     1      89.636  48.492  43.162  1.00  0.00    -0.508 OA
ATOM     13  H   UNL     1      89.052  47.728  43.298  1.00  0.00     0.293 HD
ENDBRANCH   6  12
BRANCH   3  14
ATOM     14  C   UNL     1      86.702  53.218  44.145  1.00  0.00     0.138 C 
ATOM     15  C   UNL     1      86.535  54.164  43.210  1.00  0.00     0.100 C 
ATOM     16  O   UNL     1      86.168  53.283  45.424  1.00  0.00    -0.456 OA
ATOM     17  C   UNL     1      85.755  55.365  43.543  1.00  0.00     0.197 C 
ATOM     18  C   UNL     1      85.437  54.390  45.773  1.00  0.00     0.146 A 
ATOM     19  O   UNL     1      85.577  56.264  42.728  1.00  0.00    -0.289 OA
ATOM     20  C   UNL     1      85.198  55.446  44.897  1.00  0.00     0.107 A 
ATOM     21  C   UNL     1      84.923  54.430  47.069  1.00  0.00     0.094 A 
ATOM     22  C   UNL     1      84.442  56.546  45.316  1.00  0.00     0.134 A 
ATOM     23  C   UNL     1      84.173  55.530  47.475  1.00  0.00     0.123 A 
ATOM     24  C   UNL     1      83.927  56.593  46.609  1.00  0.00     0.093 A 
BRANCH  22  25
ATOM     25  O   UNL     1      84.170  57.616  44.506  1.00  0.00    -0.507 OA
ATOM     26  H   UNL     1      85.012  58.100  44.344  1.00  0.00     0.293 HD
ENDBRANCH  22  25
BRANCH  23  27
ATOM     27  O   UNL     1      83.688  55.529  48.750  1.00  0.00    -0.508 OA
ATOM     28  H   UNL     1      83.932  54.689  49.178  1.00  0.00     0.293 HD
ENDBRANCH  23  27
ENDBRANCH   3  14
TORSDOF 6
ENDMDL
MODEL 5
REMARK VINA RESULT:    -8.833      5.313      8.895
REMARK INTER + INTRA:         -11.986
REMARK INTER:                 -11.174
REMARK INTRA:                  -0.811
REMARK UNBOUND:                -0.829
REMARK SMILES CC(C)=CCc1cc(-c2cc(=O)c3c(O)cc(O)cc3o2)ccc1O
REMARK SMILES IDX 6 1 7 2 8 3 22 4 23 5 24 6 5 7 4 8 2 9 1 10 3 11 25 12 9 14
REMARK SMILES IDX 10 15 21 16 11 17 20 18 12 19 13 20 19 21 14 22 17 23 16 24
REMARK SMILES IDX 15 25 18 27
REMARK H PARENT 25 13 15 26 18 28
ROOT
ATOM      1  C   UNL     1      85.574  55.863  44.539  1.00  0.00    -0.002 A 
ATOM      2  C   UNL     1      86.017  54.571  44.197  1.00  0.00     0.019 A 
ATOM      3  C   UNL     1      85.702  53.993  42.956  1.00  0.00     0.018 A 
ATOM      4  C   UNL     1      84.946  54.741  42.044  1.00  0.00     0.016 A 
ATOM      5  C   UNL     1      84.502  56.025  42.366  1.00  0.00     0.047 A 
ATOM      6  C   UNL     1      84.816  56.577  43.607  1.00  0.00     0.119 A 
ENDROOT
BRANCH   1   7
ATOM      7  C   UNL     1      85.957  56.454  45.878  1.00  0.00     0.066 C 
BRANCH   7   8
ATOM      8  C   UNL     1      86.158  55.400  46.935  1.00  0.00    -0.023 C 
ATOM      9  C   UNL     1      85.233  54.832  47.734  1.00  0.00    -0.080 C 
ATOM     10  C   UNL     1      85.628  53.774  48.732  1.00  0.00     0.039 C 
ATOM     11  C   UNL     1      83.768  55.171  47.746  1.00  0.00     0.039 C 
ENDBRANCH   7   8
ENDBRANCH   1   7
BRANCH   6  12
ATOM     12  O   UNL     1      84.381  57.831  43.923  1.00  0.00    -0.508 OA
ATOM     13  H   UNL     1      84.212  58.322  43.103  1.00  0.00     0.293 HD
ENDBRANCH   6  12
BRANCH   3  14
ATOM     14  C   UNL     1      86.173  52.642  42.591  1.00  0.00     0.138 C 
ATOM     15  C   UNL     1      86.968  52.437  41.531  1.00  0.00     0.100 C 
ATOM     16  O   UNL     1      85.744  51.641  43.450  1.00  0.00    -0.456 OA
ATOM     17  C   UNL     1      87.411  51.068  41.228  1.00  0.00     0.197 C 
ATOM     18  C   UNL     1      86.134  50.351  43.197  1.00  0.00     0.146 A 
ATOM     19  O   UNL     1      88.133  50.823  40.268  1.00  0.00    -0.289 OA
ATOM     20  C   UNL     1      86.950  50.003  42.125  1.00  0.00     0.107 A 
ATOM     21  C   UNL     1      85.676  49.366  44.073  1.00  0.00     0.094 A 
ATOM     22  C   UNL     1      87.313  48.667  41.925  1.00  0.00     0.134 A 
ATOM     23  C   UNL     1      86.043  48.039  43.864  1.00  0.00     0.123 A 
ATOM     24  C   UNL     1      86.859  47.678  42.795  1.00  0.00     0.093 A 
BRANCH  22  25
ATOM     25  O   UNL     1      88.113  48.257  40.891  1.00  0.00    -0.507 OA
ATOM     26  H   UNL     1      87.539  47.862  40.197  1.00  0.00     0.293 HD
ENDBRANCH  22  25
BRANCH  23  27
ATOM     27  O   UNL     1      85.575  47.107  44.743  1.00  0.00    -0.508 OA
ATOM     28  H   UNL     1      86.156  46.327  44.714  1.00  0.00     0.293 HD
ENDBRANCH  23  27
ENDBRANCH   3  14
TORSDOF 6
ENDMDL
MODEL 6
REMARK VINA RESULT:    -8.760      1.693      6.956
REMARK INTER + INTRA:         -11.893
REMARK INTER:                 -11.175
REMARK INTRA:                  -0.718
REMARK UNBOUND:                -0.829
REMARK SMILES CC(C)=CCc1cc(-c2cc(=O)c3c(O)cc(O)cc3o2)ccc1O
REMARK SMILES IDX 6 1 7 2 8 3 22 4 23 5 24 6 5 7 4 8 2 9 1 10 3 11 25 12 9 14
REMARK SMILES IDX 10 15 21 16 11 17 20 18 12 19 13 20 19 21 14 22 17 23 16 24
REMARK SMILES IDX 15 25 18 27
REMARK H PARENT 25 13 15 26 18 28
ROOT
ATOM      1  C   UNL     1      81.392  48.807  43.285  1.00  0.00    -0.002 A 
ATOM      2  C   UNL     1      82.649  48.189  43.142  1.00  0.00     0.019 A 
ATOM      3  C   UNL     1      82.891  46.899  43.644  1.00  0.00     0.018 A 
ATOM      4  C   UNL     1      81.843  46.222  44.281  1.00  0.00     0.016 A 
ATOM      5  C   UNL     1      80.589  46.820  44.427  1.00  0.00     0.047 A 
ATOM      6  C   UNL     1      80.371  48.104  43.931  1.00  0.00     0.119 A 
ENDROOT
BRANCH   1   7
ATOM      7  C   UNL     1      81.168  50.188  42.708  1.00  0.00     0.066 C 
BRANCH   7   8
ATOM      8  C   UNL     1      82.455  50.851  42.292  1.00  0.00    -0.023 C 
ATOM      9  C   UNL     1      82.630  52.083  41.774  1.00  0.00    -0.080 C 
ATOM     10  C   UNL     1      84.010  52.581  41.429  1.00  0.00     0.039 C 
ATOM     11  C   UNL     1      81.530  53.064  41.474  1.00  0.00     0.039 C 
ENDBRANCH   7   8
ENDBRANCH   1   7
BRANCH   6  12
ATOM     12  O   UNL     1      79.147  48.690  44.076  1.00  0.00    -0.508 OA
ATOM     13  H   UNL     1      79.160  49.256  44.864  1.00  0.00     0.293 HD
ENDBRANCH   6  12
BRANCH   3  14
ATOM     14  C   UNL     1      84.205  46.245  43.488  1.00  0.00     0.138 C 
ATOM     15  C   UNL     1      84.406  44.973  43.860  1.00  0.00     0.100 C 
ATOM     16  O   UNL     1      85.174  47.050  42.908  1.00  0.00    -0.456 OA
ATOM     17  C   UNL     1      85.736  44.376  43.668  1.00  0.00     0.197 C 
ATOM     18  C   UNL     1      86.429  46.530  42.716  1.00  0.00     0.146 A 
ATOM     19  O   UNL     1      85.976  43.219  43.995  1.00  0.00    -0.289 OA
ATOM     20  C   UNL     1      86.769  45.226  43.066  1.00  0.00     0.107 A 
ATOM     21  C   UNL     1      87.384  47.368  42.141  1.00  0.00     0.094 A 
ATOM     22  C   UNL     1      88.067  44.755  42.841  1.00  0.00     0.134 A 
ATOM     23  C   UNL     1      88.673  46.890  41.921  1.00  0.00     0.123 A 
ATOM     24  C   UNL     1      89.026  45.588  42.267  1.00  0.00     0.093 A 
BRANCH  22  25
ATOM     25  O   UNL     1      88.467  43.486  43.161  1.00  0.00    -0.507 OA
ATOM     26  H   UNL     1      89.375  43.352  42.807  1.00  0.00     0.293 HD
ENDBRANCH  22  25
BRANCH  23  27
ATOM     27  O   UNL     1      89.576  47.742  41.356  1.00  0.00    -0.508 OA
ATOM     28  H   UNL     1      90.139  47.240  40.741  1.00  0.00     0.293 HD
ENDBRANCH  23  27
ENDBRANCH   3  14
TORSDOF 6
ENDMDL
MODEL 7
REMARK VINA RESULT:    -8.707      2.041      7.509
REMARK INTER + INTRA:         -11.827
REMARK INTER:                 -11.101
REMARK INTRA:                  -0.726
REMARK UNBOUND:                -0.829
REMARK SMILES CC(C)=CCc1cc(-c2cc(=O)c3c(O)cc(O)cc3o2)ccc1O
REMARK SMILES IDX 6 1 7 2 8 3 22 4 23 5 24 6 5 7 4 8 2 9 1 10 3 11 25 12 9 14
REMARK SMILES IDX 10 15 21 16 11 17 20 18 12 19 13 20 19 21 14 22 17 23 16 24
REMARK SMILES IDX 15 25 18 27
REMARK H PARENT 25 13 15 26 18 28
ROOT
ATOM      1  C   UNL     1      81.651  48.571  43.378  1.00  0.00    -0.002 A 
ATOM      2  C   UNL     1      82.968  48.114  43.178  1.00  0.00     0.019 A 
ATOM      3  C   UNL     1      83.332  46.786  43.459  1.00  0.00     0.018 A 
ATOM      4  C   UNL     1      82.347  45.908  43.929  1.00  0.00     0.016 A 
ATOM      5  C   UNL     1      81.035  46.345  44.129  1.00  0.00     0.047 A 
ATOM      6  C   UNL     1      80.696  47.668  43.854  1.00  0.00     0.119 A 
ENDROOT
BRANCH   1   7
ATOM      7  C   UNL     1      81.297  50.002  43.039  1.00  0.00     0.066 C 
BRANCH   7   8
ATOM      8  C   UNL     1      82.515  50.881  42.922  1.00  0.00    -0.023 C 
ATOM      9  C   UNL     1      82.634  52.062  42.283  1.00  0.00    -0.080 C 
ATOM     10  C   UNL     1      83.944  52.808  42.288  1.00  0.00     0.039 C 
ATOM     11  C   UNL     1      81.540  52.747  41.510  1.00  0.00     0.039 C 
ENDBRANCH   7   8
ENDBRANCH   1   7
BRANCH   6  12
ATOM     12  O   UNL     1      79.414  48.096  44.051  1.00  0.00    -0.508 OA
ATOM     13  H   UNL     1      79.294  48.307  44.991  1.00  0.00     0.293 HD
ENDBRANCH   6  12
BRANCH   3  14
ATOM     14  C   UNL     1      84.710  46.302  43.243  1.00  0.00     0.138 C 
ATOM     15  C   UNL     1      85.643  47.071  42.666  1.00  0.00     0.100 C 
ATOM     16  O   UNL     1      84.938  45.016  43.711  1.00  0.00    -0.456 OA
ATOM     17  C   UNL     1      87.000  46.533  42.489  1.00  0.00     0.197 C 
ATOM     18  C   UNL     1      86.192  44.478  43.560  1.00  0.00     0.146 A 
ATOM     19  O   UNL     1      87.890  47.191  41.962  1.00  0.00    -0.289 OA
ATOM     20  C   UNL     1      87.246  45.169  42.970  1.00  0.00     0.107 A 
ATOM     21  C   UNL     1      86.386  43.179  44.030  1.00  0.00     0.094 A 
ATOM     22  C   UNL     1      88.501  44.563  42.849  1.00  0.00     0.134 A 
ATOM     23  C   UNL     1      87.639  42.586  43.904  1.00  0.00     0.123 A 
ATOM     24  C   UNL     1      88.702  43.266  43.316  1.00  0.00     0.093 A 
BRANCH  22  25
ATOM     25  O   UNL     1      89.579  45.187  42.280  1.00  0.00    -0.507 OA
ATOM     26  H   UNL     1      90.313  45.191  42.936  1.00  0.00     0.293 HD
ENDBRANCH  22  25
BRANCH  23  27
ATOM     27  O   UNL     1      87.787  41.315  44.378  1.00  0.00    -0.508 OA
ATOM     28  H   UNL     1      86.916  40.881  44.390  1.00  0.00     0.293 HD
ENDBRANCH  23  27
ENDBRANCH   3  14
TORSDOF 6
ENDMDL
MODEL 8
REMARK VINA RESULT:    -8.682      6.114      7.484
REMARK INTER + INTRA:         -11.795
REMARK INTER:                 -11.119
REMARK INTRA:                  -0.676
REMARK UNBOUND:                -0.829
REMARK SMILES CC(C)=CCc1cc(-c2cc(=O)c3c(O)cc(O)cc3o2)ccc1O
REMARK SMILES IDX 6 1 7 2 8 3 22 4 23 5 24 6 5 7 4 8 2 9 1 10 3 11 25 12 9 14
REMARK SMILES IDX 10 15 21 16 11 17 20 18 12 19 13 20 19 21 14 22 17 23 16 24
REMARK SMILES IDX 15 25 18 27
REMARK H PARENT 25 13 15 26 18 28
ROOT
ATOM      1  C   UNL     1      88.733  51.935  41.278  1.00  0.00    -0.002 A 
ATOM      2  C   UNL     1      88.175  52.363  42.497  1.00  0.00     0.019 A 
ATOM      3  C   UNL     1      86.944  53.039  42.541  1.00  0.00     0.018 A 
ATOM      4  C   UNL     1      86.262  53.265  41.339  1.00  0.00     0.016 A 
ATOM      5  C   UNL     1      86.800  52.843  40.121  1.00  0.00     0.047 A 
ATOM      6  C   UNL     1      88.027  52.183  40.097  1.00  0.00     0.119 A 
ENDROOT
BRANCH   1   7
ATOM      7  C   UNL     1      90.049  51.189  41.279  1.00  0.00     0.066 C 
BRANCH   7   8
ATOM      8  C   UNL     1      89.862  49.695  41.321  1.00  0.00    -0.023 C 
ATOM      9  C   UNL     1      90.540  48.789  42.054  1.00  0.00    -0.080 C 
ATOM     10  C   UNL     1      90.197  47.324  41.970  1.00  0.00     0.039 C 
ATOM     11  C   UNL     1      91.677  49.101  42.987  1.00  0.00     0.039 C 
ENDBRANCH   7   8
ENDBRANCH   1   7
BRANCH   6  12
ATOM     12  O   UNL     1      88.555  51.772  38.907  1.00  0.00    -0.508 OA
ATOM     13  H   UNL     1      88.870  52.548  38.417  1.00  0.00     0.293 HD
ENDBRANCH   6  12
BRANCH   3  14
ATOM     14  C   UNL     1      86.352  53.482  43.819  1.00  0.00     0.138 C 
ATOM     15  C   UNL     1      85.611  54.596  43.902  1.00  0.00     0.100 C 
ATOM     16  O   UNL     1      86.611  52.637  44.887  1.00  0.00    -0.456 OA
ATOM     17  C   UNL     1      85.040  54.977  45.202  1.00  0.00     0.197 C 
ATOM     18  C   UNL     1      86.098  52.961  46.118  1.00  0.00     0.146 A 
ATOM     19  O   UNL     1      84.360  55.989  45.336  1.00  0.00    -0.289 OA
ATOM     20  C   UNL     1      85.321  54.094  46.340  1.00  0.00     0.107 A 
ATOM     21  C   UNL     1      86.386  52.096  47.174  1.00  0.00     0.094 A 
ATOM     22  C   UNL     1      84.826  54.366  47.620  1.00  0.00     0.134 A 
ATOM     23  C   UNL     1      85.890  52.376  48.444  1.00  0.00     0.123 A 
ATOM     24  C   UNL     1      85.111  53.507  48.679  1.00  0.00     0.093 A 
BRANCH  22  25
ATOM     25  O   UNL     1      84.056  55.461  47.905  1.00  0.00    -0.507 OA
ATOM     26  H   UNL     1      83.547  55.272  48.726  1.00  0.00     0.293 HD
ENDBRANCH  22  25
BRANCH  23  27
ATOM     27  O   UNL     1      86.194  51.505  49.449  1.00  0.00    -0.508 OA
ATOM     28  H   UNL     1      86.096  51.963  50.302  1.00  0.00     0.293 HD
ENDBRANCH  23  27
ENDBRANCH   3  14
TORSDOF 6
ENDMDL
MODEL 9
REMARK VINA RESULT:    -8.531      5.973      9.259
REMARK INTER + INTRA:         -11.605
REMARK INTER:                 -10.776
REMARK INTRA:                  -0.829
REMARK UNBOUND:                -0.829
REMARK SMILES CC(C)=CCc1cc(-c2cc(=O)c3c(O)cc(O)cc3o2)ccc1O
REMARK SMILES IDX 6 1 7 2 8 3 22 4 23 5 24 6 5 7 4 8 2 9 1 10 3 11 25 12 9 14
REMARK SMILES IDX 10 15 21 16 11 17 20 18 12 19 13 20 19 21 14 22 17 23 16 24
REMARK SMILES IDX 15 25 18 27
REMARK H PARENT 25 13 15 26 18 28
ROOT
ATOM      1  C   UNL     1      84.982  53.965  46.847  1.00  0.00    -0.002 A 
ATOM      2  C   UNL     1      85.640  53.600  45.657  1.00  0.00     0.019 A 
ATOM      3  C   UNL     1      86.489  52.482  45.603  1.00  0.00     0.018 A 
ATOM      4  C   UNL     1      86.657  51.713  46.762  1.00  0.00     0.016 A 
ATOM      5  C   UNL     1      86.008  52.059  47.950  1.00  0.00     0.047 A 
ATOM      6  C   UNL     1      85.178  53.178  47.986  1.00  0.00     0.119 A 
ENDROOT
BRANCH   1   7
ATOM      7  C   UNL     1      84.059  55.163  46.854  1.00  0.00     0.066 C 
BRANCH   7   8
ATOM      8  C   UNL     1      84.766  56.434  46.462  1.00  0.00    -0.023 C 
ATOM      9  C   UNL     1      84.819  57.021  45.250  1.00  0.00    -0.080 C 
ATOM     10  C   UNL     1      85.574  58.311  45.055  1.00  0.00     0.039 C 
ATOM     11  C   UNL     1      84.181  56.488  43.997  1.00  0.00     0.039 C 
ENDBRANCH   7   8
ENDBRANCH   1   7
BRANCH   6  12
ATOM     12  O   UNL     1      84.546  53.518  49.147  1.00  0.00    -0.508 OA
ATOM     13  H   UNL     1      85.212  53.764  49.808  1.00  0.00     0.293 HD
ENDBRANCH   6  12
BRANCH   3  14
ATOM     14  C   UNL     1      87.173  52.092  44.354  1.00  0.00     0.138 C 
ATOM     15  C   UNL     1      87.073  52.828  43.238  1.00  0.00     0.100 C 
ATOM     16  O   UNL     1      87.932  50.936  44.460  1.00  0.00    -0.456 OA
ATOM     17  C   UNL     1      87.789  52.391  42.030  1.00  0.00     0.197 C 
ATOM     18  C   UNL     1      88.611  50.494  43.353  1.00  0.00     0.146 A 
ATOM     19  O   UNL     1      87.727  53.022  40.981  1.00  0.00    -0.289 OA
ATOM     20  C   UNL     1      88.583  51.162  42.132  1.00  0.00     0.107 A 
ATOM     21  C   UNL     1      89.356  49.323  43.489  1.00  0.00     0.094 A 
ATOM     22  C   UNL     1      89.300  50.659  41.041  1.00  0.00     0.134 A 
ATOM     23  C   UNL     1      90.066  48.831  42.398  1.00  0.00     0.123 A 
ATOM     24  C   UNL     1      90.045  49.489  41.170  1.00  0.00     0.093 A 
BRANCH  22  25
ATOM     25  O   UNL     1      89.315  51.266  39.814  1.00  0.00    -0.507 OA
ATOM     26  H   UNL     1      88.983  52.186  39.923  1.00  0.00     0.293 HD
ENDBRANCH  22  25
BRANCH  23  27
ATOM     27  O   UNL     1      90.781  47.683  42.574  1.00  0.00    -0.508 OA
ATOM     28  H   UNL     1      90.222  47.032  43.033  1.00  0.00     0.293 HD
ENDBRANCH  23  27
ENDBRANCH   3  14
TORSDOF 6
ENDMDL
