MODEL 1
REMARK VINA RESULT:    -6.423      0.000      0.000
REMARK INTER + INTRA:          -7.437
REMARK INTER:                  -7.285
REMARK INTRA:                  -0.152
REMARK UNBOUND:                -0.262
REMARK SMILES CC(=O)O[C@@H]1CC[C@]2(C)[C@H]3CC=C4[C@@H]5CC(C)(C)CC[C@]5(C)CC[C@@]4(C)[C@]3(C)CC[C@H]2C1(C)C
REMARK SMILES IDX 4 1 2 2 3 3 1 4 5 5 6 6 32 7 7 8 31 9 8 10 30 11 10 12 29 13
REMARK SMILES IDX 27 14 11 15 25 16 12 17 13 18 24 19 14 20 23 21 21 22 15 23
REMARK SMILES IDX 20 24 16 25 19 26 33 27 34 28 9 29 28 30 26 31 22 32 17 33
REMARK SMILES IDX 18 34
REMARK H PARENT
ROOT
ATOM      1  O   UNL     1      84.150  56.920  45.488  1.00  0.00    -0.462 OA
ENDROOT
BRANCH   1   2
ATOM      2  C   UNL     1      84.541  58.205  45.277  1.00  0.00     0.302 C 
ATOM      3  O   UNL     1      84.987  58.660  44.234  1.00  0.00    -0.253 OA
ATOM      4  C   UNL     1      84.350  59.003  46.531  1.00  0.00     0.139 C 
ENDBRANCH   1   2
BRANCH   1   5
ATOM      5  C   UNL     1      84.803  55.887  44.716  1.00  0.00     0.182 C 
ATOM      6  C   UNL     1      83.780  54.778  44.501  1.00  0.00     0.046 C 
ATOM      7  C   UNL     1      86.083  55.357  45.442  1.00  0.00     0.005 C 
ATOM      8  C   UNL     1      84.291  53.654  43.599  1.00  0.00     0.011 C 
ATOM      9  C   UNL     1      86.337  53.833  45.100  1.00  0.00     0.005 C 
ATOM     10  C   UNL     1      85.829  53.354  43.698  1.00  0.00    -0.025 C 
ATOM     11  C   UNL     1      87.778  53.360  45.373  1.00  0.00     0.005 C 
ATOM     12  C   UNL     1      86.026  51.772  43.602  1.00  0.00     0.006 C 
ATOM     13  C   UNL     1      87.874  51.833  45.355  1.00  0.00     0.008 C 
ATOM     14  C   UNL     1      87.427  51.172  44.020  1.00  0.00    -0.020 C 
ATOM     15  C   UNL     1      85.521  51.152  42.281  1.00  0.00     0.032 C 
ATOM     16  C   UNL     1      87.271  49.549  44.177  1.00  0.00    -0.006 C 
ATOM     17  C   UNL     1      85.819  49.691  42.117  1.00  0.00    -0.027 C 
ATOM     18  C   UNL     1      86.604  48.952  42.925  1.00  0.00    -0.064 C 
ATOM     19  C   UNL     1      88.635  48.822  44.425  1.00  0.00     0.012 C 
ATOM     20  C   UNL     1      86.942  47.516  42.523  1.00  0.00     0.022 C 
ATOM     21  C   UNL     1      89.333  48.302  43.165  1.00  0.00     0.008 C 
ATOM     22  C   UNL     1      88.480  47.313  42.324  1.00  0.00    -0.026 C 
ATOM     23  C   UNL     1      86.331  46.450  43.453  1.00  0.00     0.015 C 
ATOM     24  C   UNL     1      88.895  45.857  42.683  1.00  0.00     0.008 C 
ATOM     25  C   UNL     1      86.496  45.007  42.907  1.00  0.00    -0.035 C 
ATOM     26  C   UNL     1      87.869  44.824  42.216  1.00  0.00     0.007 C 
ATOM     27  C   UNL     1      87.272  56.272  45.071  1.00  0.00     0.015 C 
ATOM     28  C   UNL     1      85.915  55.475  46.983  1.00  0.00     0.015 C 
ATOM     29  C   UNL     1      86.524  54.116  42.543  1.00  0.00     0.012 C 
ATOM     30  C   UNL     1      88.513  51.491  42.959  1.00  0.00     0.012 C 
ATOM     31  C   UNL     1      86.373  49.205  45.407  1.00  0.00     0.017 C 
ATOM     32  C   UNL     1      88.831  47.570  40.836  1.00  0.00     0.012 C 
ATOM     33  C   UNL     1      85.374  44.681  41.905  1.00  0.00     0.011 C 
ATOM     34  C   UNL     1      86.374  44.024  44.089  1.00  0.00     0.011 C 
ENDBRANCH   1   5
TORSDOF 2
ENDMDL
MODEL 2
REMARK VINA RESULT:    -5.950      1.662      3.469
REMARK INTER + INTRA:          -6.908
REMARK INTER:                  -6.662
REMARK INTRA:                  -0.246
REMARK UNBOUND:                -0.262
REMARK SMILES CC(=O)O[C@@H]1CC[C@]2(C)[C@H]3CC=C4[C@@H]5CC(C)(C)CC[C@]5(C)CC[C@@]4(C)[C@]3(C)CC[C@H]2C1(C)C
REMARK SMILES IDX 4 1 2 2 3 3 1 4 5 5 6 6 32 7 7 8 31 9 8 10 30 11 10 12 29 13
REMARK SMILES IDX 27 14 11 15 25 16 12 17 13 18 24 19 14 20 23 21 21 22 15 23
REMARK SMILES IDX 20 24 16 25 19 26 33 27 34 28 9 29 28 30 26 31 22 32 17 33
REMARK SMILES IDX 18 34
REMARK H PARENT
ROOT
ATOM      1  O   UNL     1      86.289  56.876  44.765  1.00  0.00    -0.462 OA
ENDROOT
BRANCH   1   2
ATOM      2  C   UNL     1      85.518  57.900  45.218  1.00  0.00     0.302 C 
ATOM      3  O   UNL     1      85.251  58.925  44.609  1.00  0.00    -0.253 OA
ATOM      4  C   UNL     1      85.033  57.592  46.602  1.00  0.00     0.139 C 
ENDBRANCH   1   2
BRANCH   1   5
ATOM      5  C   UNL     1      85.822  55.529  45.005  1.00  0.00     0.182 C 
ATOM      6  C   UNL     1      87.057  54.655  45.179  1.00  0.00     0.046 C 
ATOM      7  C   UNL     1      84.919  55.023  43.832  1.00  0.00     0.005 C 
ATOM      8  C   UNL     1      86.724  53.209  45.553  1.00  0.00     0.011 C 
ATOM      9  C   UNL     1      85.052  53.456  43.652  1.00  0.00     0.005 C 
ATOM     10  C   UNL     1      85.389  52.645  44.949  1.00  0.00    -0.025 C 
ATOM     11  C   UNL     1      83.893  52.814  42.866  1.00  0.00     0.005 C 
ATOM     12  C   UNL     1      85.641  51.122  44.542  1.00  0.00     0.006 C 
ATOM     13  C   UNL     1      84.239  51.389  42.431  1.00  0.00     0.008 C 
ATOM     14  C   UNL     1      84.584  50.421  43.600  1.00  0.00    -0.020 C 
ATOM     15  C   UNL     1      86.031  50.209  45.724  1.00  0.00     0.032 C 
ATOM     16  C   UNL     1      85.229  49.020  43.047  1.00  0.00    -0.006 C 
ATOM     17  C   UNL     1      86.141  48.752  45.386  1.00  0.00    -0.027 C 
ATOM     18  C   UNL     1      85.778  48.185  44.218  1.00  0.00    -0.064 C 
ATOM     19  C   UNL     1      84.209  48.153  42.236  1.00  0.00     0.012 C 
ATOM     20  C   UNL     1      85.795  46.661  44.094  1.00  0.00     0.022 C 
ATOM     21  C   UNL     1      83.455  47.100  43.054  1.00  0.00     0.008 C 
ATOM     22  C   UNL     1      84.373  46.086  43.790  1.00  0.00    -0.026 C 
ATOM     23  C   UNL     1      86.858  46.130  43.114  1.00  0.00     0.015 C 
ATOM     24  C   UNL     1      84.475  44.787  42.939  1.00  0.00     0.008 C 
ATOM     25  C   UNL     1      87.012  44.587  43.168  1.00  0.00    -0.035 C 
ATOM     26  C   UNL     1      85.641  43.896  43.368  1.00  0.00     0.007 C 
ATOM     27  C   UNL     1      83.468  55.485  44.095  1.00  0.00     0.015 C 
ATOM     28  C   UNL     1      85.348  55.691  42.496  1.00  0.00     0.015 C 
ATOM     29  C   UNL     1      84.290  52.804  46.028  1.00  0.00     0.012 C 
ATOM     30  C   UNL     1      83.264  50.123  44.360  1.00  0.00     0.012 C 
ATOM     31  C   UNL     1      86.412  49.313  42.073  1.00  0.00     0.017 C 
ATOM     32  C   UNL     1      83.676  45.740  45.132  1.00  0.00     0.012 C 
ATOM     33  C   UNL     1      87.959  44.182  44.312  1.00  0.00     0.011 C 
ATOM     34  C   UNL     1      87.643  44.115  41.843  1.00  0.00     0.011 C 
ENDBRANCH   1   5
TORSDOF 2
ENDMDL
MODEL 3
REMARK VINA RESULT:    -5.818      1.326      3.242
REMARK INTER + INTRA:          -6.761
REMARK INTER:                  -6.600
REMARK INTRA:                  -0.161
REMARK UNBOUND:                -0.262
REMARK SMILES CC(=O)O[C@@H]1CC[C@]2(C)[C@H]3CC=C4[C@@H]5CC(C)(C)CC[C@]5(C)CC[C@@]4(C)[C@]3(C)CC[C@H]2C1(C)C
REMARK SMILES IDX 4 1 2 2 3 3 1 4 5 5 6 6 32 7 7 8 31 9 8 10 30 11 10 12 29 13
REMARK SMILES IDX 27 14 11 15 25 16 12 17 13 18 24 19 14 20 23 21 21 22 15 23
REMARK SMILES IDX 20 24 16 25 19 26 33 27 34 28 9 29 28 30 26 31 22 32 17 33
REMARK SMILES IDX 18 34
REMARK H PARENT
ROOT
ATOM      1  O   UNL     1      85.561  57.917  45.198  1.00  0.00    -0.462 OA
ENDROOT
BRANCH   1   2
ATOM      2  C   UNL     1      84.516  58.595  45.744  1.00  0.00     0.302 C 
ATOM      3  O   UNL     1      84.098  59.685  45.382  1.00  0.00    -0.253 OA
ATOM      4  C   UNL     1      83.940  57.806  46.880  1.00  0.00     0.139 C 
ENDBRANCH   1   2
BRANCH   1   5
ATOM      5  C   UNL     1      85.517  56.472  45.244  1.00  0.00     0.182 C 
ATOM      6  C   UNL     1      86.950  55.990  45.432  1.00  0.00     0.046 C 
ATOM      7  C   UNL     1      84.877  55.881  43.945  1.00  0.00     0.005 C 
ATOM      8  C   UNL     1      87.057  54.475  45.613  1.00  0.00     0.011 C 
ATOM      9  C   UNL     1      85.494  54.463  43.605  1.00  0.00     0.005 C 
ATOM     10  C   UNL     1      85.994  53.625  44.830  1.00  0.00    -0.025 C 
ATOM     11  C   UNL     1      84.631  53.616  42.651  1.00  0.00     0.005 C 
ATOM     12  C   UNL     1      86.722  52.314  44.282  1.00  0.00     0.006 C 
ATOM     13  C   UNL     1      85.420  52.430  42.095  1.00  0.00     0.008 C 
ATOM     14  C   UNL     1      85.982  51.462  43.175  1.00  0.00    -0.020 C 
ATOM     15  C   UNL     1      87.310  51.409  45.386  1.00  0.00     0.032 C 
ATOM     16  C   UNL     1      87.055  50.403  42.532  1.00  0.00    -0.006 C 
ATOM     17  C   UNL     1      87.879  50.110  44.900  1.00  0.00    -0.027 C 
ATOM     18  C   UNL     1      87.770  49.622  43.649  1.00  0.00    -0.064 C 
ATOM     19  C   UNL     1      86.395  49.388  41.541  1.00  0.00     0.012 C 
ATOM     20  C   UNL     1      88.261  48.203  43.358  1.00  0.00     0.022 C 
ATOM     21  C   UNL     1      85.958  48.059  42.164  1.00  0.00     0.008 C 
ATOM     22  C   UNL     1      87.102  47.276  42.864  1.00  0.00    -0.026 C 
ATOM     23  C   UNL     1      89.486  48.148  42.427  1.00  0.00     0.015 C 
ATOM     24  C   UNL     1      87.643  46.191  41.888  1.00  0.00     0.008 C 
ATOM     25  C   UNL     1      90.103  46.728  42.323  1.00  0.00    -0.035 C 
ATOM     26  C   UNL     1      89.001  45.639  42.320  1.00  0.00     0.007 C 
ATOM     27  C   UNL     1      83.342  55.851  44.124  1.00  0.00     0.015 C 
ATOM     28  C   UNL     1      85.151  56.819  42.736  1.00  0.00     0.015 C 
ATOM     29  C   UNL     1      84.843  53.304  45.815  1.00  0.00     0.012 C 
ATOM     30  C   UNL     1      84.780  50.687  43.774  1.00  0.00     0.012 C 
ATOM     31  C   UNL     1      88.141  51.162  41.708  1.00  0.00     0.017 C 
ATOM     32  C   UNL     1      86.475  46.562  44.090  1.00  0.00     0.012 C 
ATOM     33  C   UNL     1      91.066  46.474  43.497  1.00  0.00     0.011 C 
ATOM     34  C   UNL     1      90.918  46.646  41.017  1.00  0.00     0.011 C 
ENDBRANCH   1   5
TORSDOF 2
ENDMDL
MODEL 4
REMARK VINA RESULT:    -5.700      4.052      9.155
REMARK INTER + INTRA:          -6.628
REMARK INTER:                  -6.200
REMARK INTRA:                  -0.429
REMARK UNBOUND:                -0.262
REMARK SMILES CC(=O)O[C@@H]1CC[C@]2(C)[C@H]3CC=C4[C@@H]5CC(C)(C)CC[C@]5(C)CC[C@@]4(C)[C@]3(C)CC[C@H]2C1(C)C
REMARK SMILES IDX 4 1 2 2 3 3 1 4 5 5 6 6 32 7 7 8 31 9 8 10 30 11 10 12 29 13
REMARK SMILES IDX 27 14 11 15 25 16 12 17 13 18 24 19 14 20 23 21 21 22 15 23
REMARK SMILES IDX 20 24 16 25 19 26 33 27 34 28 9 29 28 30 26 31 22 32 17 33
REMARK SMILES IDX 18 34
REMARK H PARENT
ROOT
ATOM      1  O   UNL     1      88.938  44.028  42.358  1.00  0.00    -0.462 OA
ENDROOT
BRANCH   1   2
ATOM      2  C   UNL     1      88.477  42.875  42.912  1.00  0.00     0.302 C 
ATOM      3  O   UNL     1      87.826  42.012  42.342  1.00  0.00    -0.253 OA
ATOM      4  C   UNL     1      88.884  42.810  44.353  1.00  0.00     0.139 C 
ENDBRANCH   1   2
BRANCH   1   5
ATOM      5  C   UNL     1      88.416  45.274  42.875  1.00  0.00     0.182 C 
ATOM      6  C   UNL     1      87.124  45.562  42.122  1.00  0.00     0.046 C 
ATOM      7  C   UNL     1      89.451  46.435  42.710  1.00  0.00     0.005 C 
ATOM      8  C   UNL     1      86.389  46.801  42.638  1.00  0.00     0.011 C 
ATOM      9  C   UNL     1      88.715  47.822  42.506  1.00  0.00     0.005 C 
ATOM     10  C   UNL     1      87.307  47.954  43.179  1.00  0.00    -0.025 C 
ATOM     11  C   UNL     1      89.600  49.050  42.796  1.00  0.00     0.005 C 
ATOM     12  C   UNL     1      86.661  49.344  42.732  1.00  0.00     0.006 C 
ATOM     13  C   UNL     1      88.962  50.333  42.261  1.00  0.00     0.008 C 
ATOM     14  C   UNL     1      87.552  50.645  42.839  1.00  0.00    -0.020 C 
ATOM     15  C   UNL     1      85.242  49.588  43.287  1.00  0.00     0.032 C 
ATOM     16  C   UNL     1      86.815  51.849  42.008  1.00  0.00    -0.006 C 
ATOM     17  C   UNL     1      84.674  50.943  42.989  1.00  0.00    -0.027 C 
ATOM     18  C   UNL     1      85.344  51.976  42.440  1.00  0.00    -0.064 C 
ATOM     19  C   UNL     1      87.520  53.235  42.182  1.00  0.00     0.012 C 
ATOM     20  C   UNL     1      84.666  53.344  42.359  1.00  0.00     0.022 C 
ATOM     21  C   UNL     1      86.960  54.114  43.304  1.00  0.00     0.008 C 
ATOM     22  C   UNL     1      85.445  54.430  43.172  1.00  0.00    -0.026 C 
ATOM     23  C   UNL     1      84.364  53.802  40.919  1.00  0.00     0.015 C 
ATOM     24  C   UNL     1      85.276  55.832  42.520  1.00  0.00     0.008 C 
ATOM     25  C   UNL     1      83.483  55.078  40.864  1.00  0.00    -0.035 C 
ATOM     26  C   UNL     1      83.861  56.067  41.994  1.00  0.00     0.007 C 
ATOM     27  C   UNL     1      90.402  46.422  43.928  1.00  0.00     0.015 C 
ATOM     28  C   UNL     1      90.345  46.186  41.462  1.00  0.00     0.015 C 
ATOM     29  C   UNL     1      87.388  47.798  44.717  1.00  0.00     0.012 C 
ATOM     30  C   UNL     1      87.743  51.074  44.318  1.00  0.00     0.012 C 
ATOM     31  C   UNL     1      86.839  51.546  40.477  1.00  0.00     0.017 C 
ATOM     32  C   UNL     1      84.869  54.486  44.611  1.00  0.00     0.012 C 
ATOM     33  C   UNL     1      81.994  54.707  40.988  1.00  0.00     0.011 C 
ATOM     34  C   UNL     1      83.688  55.752  39.493  1.00  0.00     0.011 C 
ENDBRANCH   1   5
TORSDOF 2
ENDMDL
MODEL 5
REMARK VINA RESULT:    -4.150      3.687      9.317
REMARK INTER + INTRA:          -4.898
REMARK INTER:                  -4.562
REMARK INTRA:                  -0.335
REMARK UNBOUND:                -0.262
REMARK SMILES CC(=O)O[C@@H]1CC[C@]2(C)[C@H]3CC=C4[C@@H]5CC(C)(C)CC[C@]5(C)CC[C@@]4(C)[C@]3(C)CC[C@H]2C1(C)C
REMARK SMILES IDX 4 1 2 2 3 3 1 4 5 5 6 6 32 7 7 8 31 9 8 10 30 11 10 12 29 13
REMARK SMILES IDX 27 14 11 15 25 16 12 17 13 18 24 19 14 20 23 21 21 22 15 23
REMARK SMILES IDX 20 24 16 25 19 26 33 27 34 28 9 29 28 30 26 31 22 32 17 33
REMARK SMILES IDX 18 34
REMARK H PARENT
ROOT
ATOM      1  O   UNL     1      87.182  44.414  43.773  1.00  0.00    -0.462 OA
ENDROOT
BRANCH   1   2
ATOM      2  C   UNL     1      87.434  43.389  42.915  1.00  0.00     0.302 C 
ATOM      3  O   UNL     1      87.331  43.427  41.698  1.00  0.00    -0.253 OA
ATOM      4  C   UNL     1      87.861  42.178  43.688  1.00  0.00     0.139 C 
ENDBRANCH   1   2
BRANCH   1   5
ATOM      5  C   UNL     1      86.903  45.712  43.201  1.00  0.00     0.182 C 
ATOM      6  C   UNL     1      87.866  46.699  43.848  1.00  0.00     0.046 C 
ATOM      7  C   UNL     1      85.412  46.126  43.431  1.00  0.00     0.005 C 
ATOM      8  C   UNL     1      87.769  48.108  43.261  1.00  0.00     0.011 C 
ATOM      9  C   UNL     1      85.276  47.698  43.559  1.00  0.00     0.005 C 
ATOM     10  C   UNL     1      86.339  48.542  42.778  1.00  0.00    -0.025 C 
ATOM     11  C   UNL     1      83.848  48.225  43.323  1.00  0.00     0.005 C 
ATOM     12  C   UNL     1      86.140  50.081  43.156  1.00  0.00     0.006 C 
ATOM     13  C   UNL     1      83.706  49.675  43.790  1.00  0.00     0.008 C 
ATOM     14  C   UNL     1      84.677  50.675  43.100  1.00  0.00    -0.020 C 
ATOM     15  C   UNL     1      87.158  51.031  42.489  1.00  0.00     0.032 C 
ATOM     16  C   UNL     1      84.678  52.129  43.857  1.00  0.00    -0.006 C 
ATOM     17  C   UNL     1      86.905  52.490  42.725  1.00  0.00    -0.027 C 
ATOM     18  C   UNL     1      85.811  53.016  43.310  1.00  0.00    -0.064 C 
ATOM     19  C   UNL     1      83.320  52.893  43.720  1.00  0.00     0.012 C 
ATOM     20  C   UNL     1      85.630  54.534  43.321  1.00  0.00     0.022 C 
ATOM     21  C   UNL     1      83.240  53.874  42.546  1.00  0.00     0.008 C 
ATOM     22  C   UNL     1      84.338  54.972  42.557  1.00  0.00    -0.026 C 
ATOM     23  C   UNL     1      85.713  55.159  44.727  1.00  0.00     0.015 C 
ATOM     24  C   UNL     1      83.746  56.272  43.176  1.00  0.00     0.008 C 
ATOM     25  C   UNL     1      85.751  56.709  44.697  1.00  0.00    -0.035 C 
ATOM     26  C   UNL     1      84.828  57.270  43.587  1.00  0.00     0.007 C 
ATOM     27  C   UNL     1      84.556  45.531  42.291  1.00  0.00     0.015 C 
ATOM     28  C   UNL     1      84.876  45.496  44.747  1.00  0.00     0.015 C 
ATOM     29  C   UNL     1      86.269  48.285  41.252  1.00  0.00     0.012 C 
ATOM     30  C   UNL     1      84.198  50.851  41.635  1.00  0.00     0.012 C 
ATOM     31  C   UNL     1      84.913  51.944  45.389  1.00  0.00     0.017 C 
ATOM     32  C   UNL     1      84.704  55.257  41.077  1.00  0.00     0.012 C 
ATOM     33  C   UNL     1      87.189  57.207  44.463  1.00  0.00     0.011 C 
ATOM     34  C   UNL     1      85.289  57.234  46.072  1.00  0.00     0.011 C 
ENDBRANCH   1   5
TORSDOF 2
ENDMDL
