MODEL 1
REMARK VINA RESULT:    -6.388      0.000      0.000
REMARK INTER + INTRA:          -7.270
REMARK INTER:                  -7.726
REMARK INTRA:                   0.456
REMARK UNBOUND:                -0.135
REMARK SMILES CC(=O)O[C@H]1CC[C@]2(C)[C@H]3CC=C4[C@@H]5CC(C)(C)CC[C@]5(C)CC[C@@]4(C)[C@]3(C)CC[C@H]2C1(C)C
REMARK SMILES IDX 4 1 2 2 3 3 1 4 5 5 6 6 32 7 7 8 31 9 8 10 30 11 10 12 29 13
REMARK SMILES IDX 27 14 11 15 25 16 12 17 13 18 24 19 14 20 23 21 21 22 15 23
REMARK SMILES IDX 20 24 16 25 19 26 33 27 34 28 9 29 28 30 26 31 22 32 17 33
REMARK SMILES IDX 18 34
REMARK H PARENT
ROOT
ATOM      1  O   UNL     1      84.941  56.607  43.968  1.00  0.00    -0.462 OA
ENDROOT
BRANCH   1   2
ATOM      2  C   UNL     1      85.226  57.921  44.174  1.00  0.00     0.302 C 
ATOM      3  O   UNL     1      85.967  58.609  43.486  1.00  0.00    -0.253 OA
ATOM      4  C   UNL     1      84.495  58.414  45.384  1.00  0.00     0.139 C 
ENDBRANCH   1   2
BRANCH   1   5
ATOM      5  C   UNL     1      84.688  55.802  45.138  1.00  0.00     0.182 C 
ATOM      6  C   UNL     1      83.765  54.644  44.761  1.00  0.00     0.046 C 
ATOM      7  C   UNL     1      86.032  55.284  45.761  1.00  0.00     0.005 C 
ATOM      8  C   UNL     1      84.368  53.697  43.717  1.00  0.00     0.011 C 
ATOM      9  C   UNL     1      86.330  53.788  45.343  1.00  0.00     0.005 C 
ATOM     10  C   UNL     1      85.897  53.382  43.891  1.00  0.00    -0.025 C 
ATOM     11  C   UNL     1      87.765  53.322  45.660  1.00  0.00     0.005 C 
ATOM     12  C   UNL     1      86.106  51.808  43.736  1.00  0.00     0.006 C 
ATOM     13  C   UNL     1      87.899  51.801  45.550  1.00  0.00     0.008 C 
ATOM     14  C   UNL     1      87.507  51.209  44.165  1.00  0.00    -0.020 C 
ATOM     15  C   UNL     1      85.628  51.228  42.382  1.00  0.00     0.032 C 
ATOM     16  C   UNL     1      87.377  49.578  44.221  1.00  0.00    -0.006 C 
ATOM     17  C   UNL     1      85.998  49.796  42.129  1.00  0.00    -0.027 C 
ATOM     18  C   UNL     1      86.795  49.040  42.908  1.00  0.00    -0.064 C 
ATOM     19  C   UNL     1      88.731  48.857  44.535  1.00  0.00     0.012 C 
ATOM     20  C   UNL     1      87.258  47.668  42.406  1.00  0.00     0.022 C 
ATOM     21  C   UNL     1      89.567  48.326  43.358  1.00  0.00     0.008 C 
ATOM     22  C   UNL     1      88.795  47.692  42.163  1.00  0.00    -0.026 C 
ATOM     23  C   UNL     1      86.780  46.496  43.290  1.00  0.00     0.015 C 
ATOM     24  C   UNL     1      89.341  46.271  41.847  1.00  0.00     0.008 C 
ATOM     25  C   UNL     1      87.303  45.112  42.856  1.00  0.00    -0.035 C 
ATOM     26  C   UNL     1      88.840  45.175  42.781  1.00  0.00     0.007 C 
ATOM     27  C   UNL     1      87.194  56.252  45.451  1.00  0.00     0.015 C 
ATOM     28  C   UNL     1      85.848  55.309  47.307  1.00  0.00     0.015 C 
ATOM     29  C   UNL     1      86.663  54.184  42.811  1.00  0.00     0.012 C 
ATOM     30  C   UNL     1      88.622  51.609  43.166  1.00  0.00     0.012 C 
ATOM     31  C   UNL     1      86.397  49.160  45.369  1.00  0.00     0.017 C 
ATOM     32  C   UNL     1      89.109  48.534  40.895  1.00  0.00     0.012 C 
ATOM     33  C   UNL     1      86.686  44.678  41.514  1.00  0.00     0.011 C 
ATOM     34  C   UNL     1      86.901  44.068  43.917  1.00  0.00     0.011 C 
ENDBRANCH   1   5
TORSDOF 2
ENDMDL
MODEL 2
REMARK VINA RESULT:    -6.317      3.576      8.881
REMARK INTER + INTRA:          -7.190
REMARK INTER:                  -7.019
REMARK INTRA:                  -0.171
REMARK UNBOUND:                -0.135
REMARK SMILES CC(=O)O[C@H]1CC[C@]2(C)[C@H]3CC=C4[C@@H]5CC(C)(C)CC[C@]5(C)CC[C@@]4(C)[C@]3(C)CC[C@H]2C1(C)C
REMARK SMILES IDX 4 1 2 2 3 3 1 4 5 5 6 6 32 7 7 8 31 9 8 10 30 11 10 12 29 13
REMARK SMILES IDX 27 14 11 15 25 16 12 17 13 18 24 19 14 20 23 21 21 22 15 23
REMARK SMILES IDX 20 24 16 25 19 26 33 27 34 28 9 29 28 30 26 31 22 32 17 33
REMARK SMILES IDX 18 34
REMARK H PARENT
ROOT
ATOM      1  O   UNL     1      88.800  44.928  43.688  1.00  0.00    -0.462 OA
ENDROOT
BRANCH   1   2
ATOM      2  C   UNL     1      87.937  43.884  43.816  1.00  0.00     0.302 C 
ATOM      3  O   UNL     1      86.808  43.941  44.281  1.00  0.00    -0.253 OA
ATOM      4  C   UNL     1      88.576  42.632  43.299  1.00  0.00     0.139 C 
ENDBRANCH   1   2
BRANCH   1   5
ATOM      5  C   UNL     1      89.044  45.414  42.353  1.00  0.00     0.182 C 
ATOM      6  C   UNL     1      87.707  45.702  41.671  1.00  0.00     0.046 C 
ATOM      7  C   UNL     1      89.959  46.688  42.382  1.00  0.00     0.005 C 
ATOM      8  C   UNL     1      86.884  46.788  42.374  1.00  0.00     0.011 C 
ATOM      9  C   UNL     1      89.113  48.017  42.232  1.00  0.00     0.005 C 
ATOM     10  C   UNL     1      87.703  48.013  42.918  1.00  0.00    -0.025 C 
ATOM     11  C   UNL     1      89.901  49.302  42.558  1.00  0.00     0.005 C 
ATOM     12  C   UNL     1      86.945  49.352  42.494  1.00  0.00     0.006 C 
ATOM     13  C   UNL     1      89.157  50.552  42.083  1.00  0.00     0.008 C 
ATOM     14  C   UNL     1      87.722  50.720  42.664  1.00  0.00    -0.020 C 
ATOM     15  C   UNL     1      85.489  49.455  43.012  1.00  0.00     0.032 C 
ATOM     16  C   UNL     1      86.888  51.890  41.881  1.00  0.00    -0.006 C 
ATOM     17  C   UNL     1      84.825  50.784  42.803  1.00  0.00    -0.027 C 
ATOM     18  C   UNL     1      85.421  51.896  42.330  1.00  0.00    -0.064 C 
ATOM     19  C   UNL     1      87.502  53.319  42.061  1.00  0.00     0.012 C 
ATOM     20  C   UNL     1      84.673  53.233  42.381  1.00  0.00     0.022 C 
ATOM     21  C   UNL     1      86.924  54.230  43.158  1.00  0.00     0.008 C 
ATOM     22  C   UNL     1      85.384  54.192  43.380  1.00  0.00    -0.026 C 
ATOM     23  C   UNL     1      84.420  53.850  40.989  1.00  0.00     0.015 C 
ATOM     24  C   UNL     1      84.782  55.624  43.316  1.00  0.00     0.008 C 
ATOM     25  C   UNL     1      83.745  55.235  41.016  1.00  0.00    -0.035 C 
ATOM     26  C   UNL     1      84.587  56.169  41.905  1.00  0.00     0.007 C 
ATOM     27  C   UNL     1      90.878  46.682  43.622  1.00  0.00     0.015 C 
ATOM     28  C   UNL     1      90.900  46.593  41.145  1.00  0.00     0.015 C 
ATOM     29  C   UNL     1      87.804  47.859  44.455  1.00  0.00     0.012 C 
ATOM     30  C   UNL     1      87.877  51.100  44.158  1.00  0.00     0.012 C 
ATOM     31  C   UNL     1      86.900  51.614  40.339  1.00  0.00     0.017 C 
ATOM     32  C   UNL     1      85.126  53.712  44.836  1.00  0.00     0.012 C 
ATOM     33  C   UNL     1      82.290  55.138  41.511  1.00  0.00     0.011 C 
ATOM     34  C   UNL     1      83.716  55.807  39.585  1.00  0.00     0.011 C 
ENDBRANCH   1   5
TORSDOF 2
ENDMDL
MODEL 3
REMARK VINA RESULT:    -5.751      3.181      8.955
REMARK INTER + INTRA:          -6.558
REMARK INTER:                  -6.127
REMARK INTRA:                  -0.431
REMARK UNBOUND:                -0.135
REMARK SMILES CC(=O)O[C@H]1CC[C@]2(C)[C@H]3CC=C4[C@@H]5CC(C)(C)CC[C@]5(C)CC[C@@]4(C)[C@]3(C)CC[C@H]2C1(C)C
REMARK SMILES IDX 4 1 2 2 3 3 1 4 5 5 6 6 32 7 7 8 31 9 8 10 30 11 10 12 29 13
REMARK SMILES IDX 27 14 11 15 25 16 12 17 13 18 24 19 14 20 23 21 21 22 15 23
REMARK SMILES IDX 20 24 16 25 19 26 33 27 34 28 9 29 28 30 26 31 22 32 17 33
REMARK SMILES IDX 18 34
REMARK H PARENT
ROOT
ATOM      1  O   UNL     1      86.282  45.627  43.341  1.00  0.00    -0.462 OA
ENDROOT
BRANCH   1   2
ATOM      2  C   UNL     1      85.831  44.374  43.067  1.00  0.00     0.302 C 
ATOM      3  O   UNL     1      84.661  44.018  43.064  1.00  0.00    -0.253 OA
ATOM      4  C   UNL     1      86.989  43.473  42.766  1.00  0.00     0.139 C 
ENDBRANCH   1   2
BRANCH   1   5
ATOM      5  C   UNL     1      86.470  46.514  42.220  1.00  0.00     0.182 C 
ATOM      6  C   UNL     1      85.211  47.358  42.030  1.00  0.00     0.046 C 
ATOM      7  C   UNL     1      87.738  47.414  42.427  1.00  0.00     0.005 C 
ATOM      8  C   UNL     1      84.891  48.256  43.231  1.00  0.00     0.011 C 
ATOM      9  C   UNL     1      87.349  48.861  42.935  1.00  0.00     0.005 C 
ATOM     10  C   UNL     1      86.129  48.938  43.916  1.00  0.00    -0.025 C 
ATOM     11  C   UNL     1      88.545  49.688  43.448  1.00  0.00     0.005 C 
ATOM     12  C   UNL     1      85.784  50.478  44.155  1.00  0.00     0.006 C 
ATOM     13  C   UNL     1      88.179  51.165  43.609  1.00  0.00     0.008 C 
ATOM     14  C   UNL     1      86.974  51.441  44.556  1.00  0.00    -0.020 C 
ATOM     15  C   UNL     1      84.530  50.726  45.029  1.00  0.00     0.032 C 
ATOM     16  C   UNL     1      86.452  52.988  44.433  1.00  0.00    -0.006 C 
ATOM     17  C   UNL     1      84.302  52.152  45.438  1.00  0.00    -0.027 C 
ATOM     18  C   UNL     1      85.146  53.178  45.215  1.00  0.00    -0.064 C 
ATOM     19  C   UNL     1      87.511  54.041  44.904  1.00  0.00     0.012 C 
ATOM     20  C   UNL     1      84.881  54.531  45.885  1.00  0.00     0.022 C 
ATOM     21  C   UNL     1      87.421  54.573  46.345  1.00  0.00     0.008 C 
ATOM     22  C   UNL     1      85.999  54.828  46.925  1.00  0.00    -0.026 C 
ATOM     23  C   UNL     1      84.638  55.677  44.880  1.00  0.00     0.015 C 
ATOM     24  C   UNL     1      85.885  56.275  47.483  1.00  0.00     0.008 C 
ATOM     25  C   UNL     1      84.452  57.065  45.523  1.00  0.00    -0.035 C 
ATOM     26  C   UNL     1      85.670  57.349  46.423  1.00  0.00     0.007 C 
ATOM     27  C   UNL     1      88.779  46.708  43.323  1.00  0.00     0.015 C 
ATOM     28  C   UNL     1      88.408  47.575  41.030  1.00  0.00     0.015 C 
ATOM     29  C   UNL     1      86.399  48.186  45.241  1.00  0.00     0.012 C 
ATOM     30  C   UNL     1      87.459  51.168  46.002  1.00  0.00     0.012 C 
ATOM     31  C   UNL     1      86.149  53.331  42.935  1.00  0.00     0.017 C 
ATOM     32  C   UNL     1      85.819  53.905  48.163  1.00  0.00     0.012 C 
ATOM     33  C   UNL     1      83.132  57.143  46.312  1.00  0.00     0.011 C 
ATOM     34  C   UNL     1      84.399  58.131  44.411  1.00  0.00     0.011 C 
ENDBRANCH   1   5
TORSDOF 2
ENDMDL
MODEL 4
REMARK VINA RESULT:    -5.678      1.591      3.401
REMARK INTER + INTRA:          -6.476
REMARK INTER:                  -6.549
REMARK INTRA:                   0.073
REMARK UNBOUND:                -0.135
REMARK SMILES CC(=O)O[C@H]1CC[C@]2(C)[C@H]3CC=C4[C@@H]5CC(C)(C)CC[C@]5(C)CC[C@@]4(C)[C@]3(C)CC[C@H]2C1(C)C
REMARK SMILES IDX 4 1 2 2 3 3 1 4 5 5 6 6 32 7 7 8 31 9 8 10 30 11 10 12 29 13
REMARK SMILES IDX 27 14 11 15 25 16 12 17 13 18 24 19 14 20 23 21 21 22 15 23
REMARK SMILES IDX 20 24 16 25 19 26 33 27 34 28 9 29 28 30 26 31 22 32 17 33
REMARK SMILES IDX 18 34
REMARK H PARENT
ROOT
ATOM      1  O   UNL     1      84.443  56.626  46.613  1.00  0.00    -0.462 OA
ENDROOT
BRANCH   1   2
ATOM      2  C   UNL     1      83.509  57.584  46.861  1.00  0.00     0.302 C 
ATOM      3  O   UNL     1      82.352  57.384  47.203  1.00  0.00    -0.253 OA
ATOM      4  C   UNL     1      84.106  58.941  46.651  1.00  0.00     0.139 C 
ENDBRANCH   1   2
BRANCH   1   5
ATOM      5  C   UNL     1      85.416  56.913  45.588  1.00  0.00     0.182 C 
ATOM      6  C   UNL     1      86.759  56.302  45.985  1.00  0.00     0.046 C 
ATOM      7  C   UNL     1      84.933  56.379  44.194  1.00  0.00     0.005 C 
ATOM      8  C   UNL     1      86.720  54.774  46.117  1.00  0.00     0.011 C 
ATOM      9  C   UNL     1      85.614  54.998  43.831  1.00  0.00     0.005 C 
ATOM     10  C   UNL     1      85.869  54.022  45.032  1.00  0.00    -0.025 C 
ATOM     11  C   UNL     1      84.963  54.272  42.637  1.00  0.00     0.005 C 
ATOM     12  C   UNL     1      86.724  52.788  44.491  1.00  0.00     0.006 C 
ATOM     13  C   UNL     1      85.846  53.134  42.122  1.00  0.00     0.008 C 
ATOM     14  C   UNL     1      86.211  52.056  43.185  1.00  0.00    -0.020 C 
ATOM     15  C   UNL     1      87.149  51.775  45.583  1.00  0.00     0.032 C 
ATOM     16  C   UNL     1      87.393  51.058  42.652  1.00  0.00    -0.006 C 
ATOM     17  C   UNL     1      87.774  50.508  45.077  1.00  0.00    -0.027 C 
ATOM     18  C   UNL     1      87.875  50.143  43.785  1.00  0.00    -0.064 C 
ATOM     19  C   UNL     1      86.968  50.194  41.417  1.00  0.00     0.012 C 
ATOM     20  C   UNL     1      88.336  48.723  43.437  1.00  0.00     0.022 C 
ATOM     21  C   UNL     1      86.457  48.764  41.666  1.00  0.00     0.008 C 
ATOM     22  C   UNL     1      87.164  47.938  42.780  1.00  0.00    -0.026 C 
ATOM     23  C   UNL     1      89.649  48.685  42.626  1.00  0.00     0.015 C 
ATOM     24  C   UNL     1      87.640  46.564  42.228  1.00  0.00     0.008 C 
ATOM     25  C   UNL     1      90.092  47.275  42.190  1.00  0.00    -0.035 C 
ATOM     26  C   UNL     1      88.931  46.618  41.419  1.00  0.00     0.007 C 
ATOM     27  C   UNL     1      83.391  56.341  44.121  1.00  0.00     0.015 C 
ATOM     28  C   UNL     1      85.392  57.420  43.131  1.00  0.00     0.015 C 
ATOM     29  C   UNL     1      84.551  53.571  45.705  1.00  0.00     0.012 C 
ATOM     30  C   UNL     1      84.925  51.239  43.465  1.00  0.00     0.012 C 
ATOM     31  C   UNL     1      88.628  51.898  42.178  1.00  0.00     0.017 C 
ATOM     32  C   UNL     1      86.101  47.590  43.860  1.00  0.00     0.012 C 
ATOM     33  C   UNL     1      90.523  46.425  43.399  1.00  0.00     0.011 C 
ATOM     34  C   UNL     1      91.305  47.398  41.247  1.00  0.00     0.011 C 
ENDBRANCH   1   5
TORSDOF 2
ENDMDL
MODEL 5
REMARK VINA RESULT:    -5.283      1.820      3.588
REMARK INTER + INTRA:          -6.035
REMARK INTER:                  -6.078
REMARK INTRA:                   0.042
REMARK UNBOUND:                -0.135
REMARK SMILES CC(=O)O[C@H]1CC[C@]2(C)[C@H]3CC=C4[C@@H]5CC(C)(C)CC[C@]5(C)CC[C@@]4(C)[C@]3(C)CC[C@H]2C1(C)C
REMARK SMILES IDX 4 1 2 2 3 3 1 4 5 5 6 6 32 7 7 8 31 9 8 10 30 11 10 12 29 13
REMARK SMILES IDX 27 14 11 15 25 16 12 17 13 18 24 19 14 20 23 21 21 22 15 23
REMARK SMILES IDX 20 24 16 25 19 26 33 27 34 28 9 29 28 30 26 31 22 32 17 33
REMARK SMILES IDX 18 34
REMARK H PARENT
ROOT
ATOM      1  O   UNL     1      85.046  55.580  46.354  1.00  0.00    -0.462 OA
ENDROOT
BRANCH   1   2
ATOM      2  C   UNL     1      84.508  56.816  46.534  1.00  0.00     0.302 C 
ATOM      3  O   UNL     1      83.394  57.054  46.979  1.00  0.00    -0.253 OA
ATOM      4  C   UNL     1      85.487  57.863  46.099  1.00  0.00     0.139 C 
ENDBRANCH   1   2
BRANCH   1   5
ATOM      5  C   UNL     1      85.963  55.420  45.253  1.00  0.00     0.182 C 
ATOM      6  C   UNL     1      87.073  54.452  45.660  1.00  0.00     0.046 C 
ATOM      7  C   UNL     1      85.212  54.923  43.969  1.00  0.00     0.005 C 
ATOM      8  C   UNL     1      86.564  53.045  45.995  1.00  0.00     0.011 C 
ATOM      9  C   UNL     1      85.385  53.364  43.758  1.00  0.00     0.005 C 
ATOM     10  C   UNL     1      85.425  52.497  45.063  1.00  0.00    -0.025 C 
ATOM     11  C   UNL     1      84.432  52.765  42.705  1.00  0.00     0.005 C 
ATOM     12  C   UNL     1      85.792  51.000  44.649  1.00  0.00     0.006 C 
ATOM     13  C   UNL     1      84.859  51.351  42.301  1.00  0.00     0.008 C 
ATOM     14  C   UNL     1      84.958  50.337  43.479  1.00  0.00    -0.020 C 
ATOM     15  C   UNL     1      85.971  50.030  45.843  1.00  0.00     0.032 C 
ATOM     16  C   UNL     1      85.709  48.956  43.024  1.00  0.00    -0.006 C 
ATOM     17  C   UNL     1      86.114  48.581  45.479  1.00  0.00    -0.027 C 
ATOM     18  C   UNL     1      85.976  48.064  44.243  1.00  0.00    -0.064 C 
ATOM     19  C   UNL     1      84.923  48.149  41.938  1.00  0.00     0.012 C 
ATOM     20  C   UNL     1      85.931  46.542  44.063  1.00  0.00     0.022 C 
ATOM     21  C   UNL     1      84.010  46.999  42.399  1.00  0.00     0.008 C 
ATOM     22  C   UNL     1      84.516  46.115  43.577  1.00  0.00    -0.026 C 
ATOM     23  C   UNL     1      87.085  45.990  43.200  1.00  0.00     0.015 C 
ATOM     24  C   UNL     1      84.481  44.609  43.189  1.00  0.00     0.008 C 
ATOM     25  C   UNL     1      87.017  44.474  42.933  1.00  0.00    -0.035 C 
ATOM     26  C   UNL     1      85.643  44.151  42.315  1.00  0.00     0.007 C 
ATOM     27  C   UNL     1      83.737  55.382  43.978  1.00  0.00     0.015 C 
ATOM     28  C   UNL     1      85.879  55.635  42.755  1.00  0.00     0.015 C 
ATOM     29  C   UNL     1      84.098  52.576  45.855  1.00  0.00     0.012 C 
ATOM     30  C   UNL     1      83.509  50.019  43.929  1.00  0.00     0.012 C 
ATOM     31  C   UNL     1      87.098  49.291  42.382  1.00  0.00     0.017 C 
ATOM     32  C   UNL     1      83.499  46.253  44.744  1.00  0.00     0.012 C 
ATOM     33  C   UNL     1      87.264  43.668  44.222  1.00  0.00     0.011 C 
ATOM     34  C   UNL     1      88.116  44.091  41.922  1.00  0.00     0.011 C 
ENDBRANCH   1   5
TORSDOF 2
ENDMDL
MODEL 6
REMARK VINA RESULT:    -5.160      3.655      8.987
REMARK INTER + INTRA:          -5.898
REMARK INTER:                  -5.632
REMARK INTRA:                  -0.267
REMARK UNBOUND:                -0.135
REMARK SMILES CC(=O)O[C@H]1CC[C@]2(C)[C@H]3CC=C4[C@@H]5CC(C)(C)CC[C@]5(C)CC[C@@]4(C)[C@]3(C)CC[C@H]2C1(C)C
REMARK SMILES IDX 4 1 2 2 3 3 1 4 5 5 6 6 32 7 7 8 31 9 8 10 30 11 10 12 29 13
REMARK SMILES IDX 27 14 11 15 25 16 12 17 13 18 24 19 14 20 23 21 21 22 15 23
REMARK SMILES IDX 20 24 16 25 19 26 33 27 34 28 9 29 28 30 26 31 22 32 17 33
REMARK SMILES IDX 18 34
REMARK H PARENT
ROOT
ATOM      1  O   UNL     1      85.641  44.937  42.701  1.00  0.00    -0.462 OA
ENDROOT
BRANCH   1   2
ATOM      2  C   UNL     1      86.620  44.132  43.194  1.00  0.00     0.302 C 
ATOM      3  O   UNL     1      86.451  43.154  43.908  1.00  0.00    -0.253 OA
ATOM      4  C   UNL     1      87.958  44.622  42.733  1.00  0.00     0.139 C 
ENDBRANCH   1   2
BRANCH   1   5
ATOM      5  C   UNL     1      84.558  45.271  43.593  1.00  0.00     0.182 C 
ATOM      6  C   UNL     1      85.132  45.860  44.881  1.00  0.00     0.046 C 
ATOM      7  C   UNL     1      83.554  46.262  42.907  1.00  0.00     0.005 C 
ATOM      8  C   UNL     1      85.917  47.159  44.661  1.00  0.00     0.011 C 
ATOM      9  C   UNL     1      83.803  47.755  43.367  1.00  0.00     0.005 C 
ATOM     10  C   UNL     1      85.298  48.156  43.616  1.00  0.00    -0.025 C 
ATOM     11  C   UNL     1      83.067  48.805  42.510  1.00  0.00     0.005 C 
ATOM     12  C   UNL     1      85.318  49.621  44.248  1.00  0.00     0.006 C 
ATOM     13  C   UNL     1      83.067  50.179  43.185  1.00  0.00     0.008 C 
ATOM     14  C   UNL     1      84.479  50.746  43.516  1.00  0.00    -0.020 C 
ATOM     15  C   UNL     1      86.725  50.128  44.649  1.00  0.00     0.032 C 
ATOM     16  C   UNL     1      84.390  52.050  44.501  1.00  0.00    -0.006 C 
ATOM     17  C   UNL     1      86.798  51.571  45.053  1.00  0.00    -0.027 C 
ATOM     18  C   UNL     1      85.790  52.462  44.975  1.00  0.00    -0.064 C 
ATOM     19  C   UNL     1      83.670  53.277  43.847  1.00  0.00     0.012 C 
ATOM     20  C   UNL     1      86.077  53.948  45.215  1.00  0.00     0.022 C 
ATOM     21  C   UNL     1      84.534  54.365  43.186  1.00  0.00     0.008 C 
ATOM     22  C   UNL     1      85.871  54.741  43.891  1.00  0.00    -0.026 C 
ATOM     23  C   UNL     1      85.316  54.534  46.423  1.00  0.00     0.015 C 
ATOM     24  C   UNL     1      85.954  56.275  44.131  1.00  0.00     0.008 C 
ATOM     25  C   UNL     1      85.521  56.047  46.636  1.00  0.00    -0.035 C 
ATOM     26  C   UNL     1      85.155  56.775  45.329  1.00  0.00     0.007 C 
ATOM     27  C   UNL     1      83.560  46.082  41.373  1.00  0.00     0.015 C 
ATOM     28  C   UNL     1      82.128  45.858  43.384  1.00  0.00     0.015 C 
ATOM     29  C   UNL     1      86.148  48.064  42.326  1.00  0.00     0.012 C 
ATOM     30  C   UNL     1      85.134  51.152  42.171  1.00  0.00     0.012 C 
ATOM     31  C   UNL     1      83.554  51.698  45.778  1.00  0.00     0.017 C 
ATOM     32  C   UNL     1      87.032  54.424  42.907  1.00  0.00     0.012 C 
ATOM     33  C   UNL     1      86.963  56.359  47.076  1.00  0.00     0.011 C 
ATOM     34  C   UNL     1      84.574  56.529  47.753  1.00  0.00     0.011 C 
ENDBRANCH   1   5
TORSDOF 2
ENDMDL
MODEL 7
REMARK VINA RESULT:    -3.738      1.828      2.365
REMARK INTER + INTRA:          -4.309
REMARK INTER:                  -5.522
REMARK INTRA:                   1.212
REMARK UNBOUND:                -0.135
REMARK SMILES CC(=O)O[C@H]1CC[C@]2(C)[C@H]3CC=C4[C@@H]5CC(C)(C)CC[C@]5(C)CC[C@@]4(C)[C@]3(C)CC[C@H]2C1(C)C
REMARK SMILES IDX 4 1 2 2 3 3 1 4 5 5 6 6 32 7 7 8 31 9 8 10 30 11 10 12 29 13
REMARK SMILES IDX 27 14 11 15 25 16 12 17 13 18 24 19 14 20 23 21 21 22 15 23
REMARK SMILES IDX 20 24 16 25 19 26 33 27 34 28 9 29 28 30 26 31 22 32 17 33
REMARK SMILES IDX 18 34
REMARK H PARENT
ROOT
ATOM      1  O   UNL     1      84.560  55.601  41.422  1.00  0.00    -0.462 OA
ENDROOT
BRANCH   1   2
ATOM      2  C   UNL     1      83.988  55.276  40.232  1.00  0.00     0.302 C 
ATOM      3  O   UNL     1      84.585  55.048  39.189  1.00  0.00    -0.253 OA
ATOM      4  C   UNL     1      82.498  55.239  40.379  1.00  0.00     0.139 C 
ENDBRANCH   1   2
BRANCH   1   5
ATOM      5  C   UNL     1      84.062  54.922  42.593  1.00  0.00     0.182 C 
ATOM      6  C   UNL     1      83.489  53.566  42.182  1.00  0.00     0.046 C 
ATOM      7  C   UNL     1      85.193  54.763  43.669  1.00  0.00     0.005 C 
ATOM      8  C   UNL     1      84.528  52.628  41.557  1.00  0.00     0.011 C 
ATOM      9  C   UNL     1      85.824  53.312  43.643  1.00  0.00     0.005 C 
ATOM     10  C   UNL     1      85.947  52.645  42.230  1.00  0.00    -0.025 C 
ATOM     11  C   UNL     1      87.131  53.183  44.450  1.00  0.00     0.005 C 
ATOM     12  C   UNL     1      86.422  51.135  42.437  1.00  0.00     0.006 C 
ATOM     13  C   UNL     1      87.513  51.717  44.668  1.00  0.00     0.008 C 
ATOM     14  C   UNL     1      87.680  50.883  43.364  1.00  0.00    -0.020 C 
ATOM     15  C   UNL     1      86.497  50.302  41.134  1.00  0.00     0.032 C 
ATOM     16  C   UNL     1      87.778  49.280  43.680  1.00  0.00    -0.006 C 
ATOM     17  C   UNL     1      87.132  48.949  41.271  1.00  0.00    -0.027 C 
ATOM     18  C   UNL     1      87.735  48.472  42.377  1.00  0.00    -0.064 C 
ATOM     19  C   UNL     1      89.047  48.886  44.507  1.00  0.00     0.012 C 
ATOM     20  C   UNL     1      88.531  47.164  42.297  1.00  0.00     0.022 C 
ATOM     21  C   UNL     1      90.286  48.380  43.749  1.00  0.00     0.008 C 
ATOM     22  C   UNL     1      90.043  47.457  42.519  1.00  0.00    -0.026 C 
ATOM     23  C   UNL     1      87.968  46.047  43.202  1.00  0.00     0.015 C 
ATOM     24  C   UNL     1      90.862  46.142  42.647  1.00  0.00     0.008 C 
ATOM     25  C   UNL     1      88.798  44.748  43.206  1.00  0.00    -0.035 C 
ATOM     26  C   UNL     1      90.251  45.100  43.577  1.00  0.00     0.007 C 
ATOM     27  C   UNL     1      86.239  55.891  43.543  1.00  0.00     0.015 C 
ATOM     28  C   UNL     1      84.518  54.952  45.060  1.00  0.00     0.015 C 
ATOM     29  C   UNL     1      86.896  53.433  41.294  1.00  0.00     0.012 C 
ATOM     30  C   UNL     1      88.988  51.361  42.682  1.00  0.00     0.012 C 
ATOM     31  C   UNL     1      86.551  48.831  44.545  1.00  0.00     0.017 C 
ATOM     32  C   UNL     1      90.624  48.172  41.266  1.00  0.00     0.012 C 
ATOM     33  C   UNL     1      88.718  44.029  41.846  1.00  0.00     0.011 C 
ATOM     34  C   UNL     1      88.231  43.793  44.275  1.00  0.00     0.011 C 
ENDBRANCH   1   5
TORSDOF 2
ENDMDL
