MODEL 1
REMARK VINA RESULT:    -5.221      0.000      0.000
REMARK INTER + INTRA:          -6.747
REMARK INTER:                  -6.655
REMARK INTRA:                  -0.092
REMARK UNBOUND:                -0.457
REMARK SMILES CC(=O)O[C@H]1CC[C@@]2(C)C(CC[C@@]3(C)C4=CC[C@@]5(C(=O)O)CCC(C)(C)CC5[C@]4(C)CCC23)C1(C)C
REMARK SMILES IDX 5 1 6 2 7 3 8 4 10 5 34 6 35 7 36 8 11 9 12 10 13 11 33 12
REMARK SMILES IDX 32 13 31 14 29 15 15 16 16 17 17 18 18 19 28 20 27 21 24 22
REMARK SMILES IDX 25 23 26 24 23 25 22 26 30 27 14 28 9 29 4 30 2 31 3 32 1 33
REMARK SMILES IDX 19 34 20 35 21 36
REMARK H PARENT 21 37
ROOT
ATOM      1  C   UNL     1      83.316  54.996  41.508  1.00  0.00     0.182 C 
ATOM      2  C   UNL     1      83.101  53.560  41.026  1.00  0.00     0.046 C 
ATOM      3  C   UNL     1      84.407  52.926  40.546  1.00  0.00     0.011 C 
ATOM      4  C   UNL     1      85.605  53.096  41.551  1.00  0.00    -0.025 C 
ATOM      5  C   UNL     1      85.137  53.747  42.898  1.00  0.00     0.005 C 
ATOM      6  C   UNL     1      84.259  55.055  42.760  1.00  0.00     0.005 C 
ATOM      7  C   UNL     1      83.336  55.131  44.012  1.00  0.00     0.015 C 
ATOM      8  C   UNL     1      85.095  56.354  42.762  1.00  0.00     0.015 C 
ATOM      9  C   UNL     1      86.307  53.879  43.905  1.00  0.00     0.006 C 
ATOM     10  C   UNL     1      86.968  52.535  44.238  1.00  0.00     0.012 C 
ATOM     11  C   UNL     1      87.391  51.688  43.007  1.00  0.00    -0.008 C 
ATOM     12  C   UNL     1      86.249  51.672  41.910  1.00  0.00     0.005 C 
ATOM     13  C   UNL     1      85.140  50.612  42.230  1.00  0.00     0.006 C 
ATOM     14  C   UNL     1      85.204  49.928  43.587  1.00  0.00     0.012 C 
ATOM     15  C   UNL     1      86.578  49.297  43.905  1.00  0.00    -0.007 C 
ATOM     16  C   UNL     1      87.715  50.205  43.400  1.00  0.00    -0.062 C 
ATOM     17  C   UNL     1      88.937  49.641  43.285  1.00  0.00    -0.025 C 
ATOM     18  C   UNL     1      89.165  48.173  43.479  1.00  0.00     0.046 C 
ATOM     19  C   UNL     1      88.056  47.364  42.785  1.00  0.00     0.075 C 
ATOM     20  C   UNL     1      86.625  47.847  43.233  1.00  0.00     0.017 C 
ATOM     21  C   UNL     1      85.906  46.763  44.077  1.00  0.00     0.012 C 
ATOM     22  C   UNL     1      85.775  45.394  43.363  1.00  0.00    -0.035 C 
ATOM     23  C   UNL     1      85.454  44.325  44.426  1.00  0.00     0.011 C 
ATOM     24  C   UNL     1      84.609  45.423  42.357  1.00  0.00     0.011 C 
ATOM     25  C   UNL     1      87.079  45.015  42.624  1.00  0.00     0.007 C 
ATOM     26  C   UNL     1      88.272  45.856  43.074  1.00  0.00     0.020 C 
ATOM     27  C   UNL     1      86.686  49.197  45.453  1.00  0.00     0.016 C 
ATOM     28  C   UNL     1      88.684  52.356  42.451  1.00  0.00     0.016 C 
ATOM     29  C   UNL     1      86.622  53.993  40.792  1.00  0.00     0.012 C 
ENDROOT
BRANCH   1  30
ATOM     30  O   UNL     1      83.877  55.773  40.425  1.00  0.00    -0.462 OA
BRANCH  30  31
ATOM     31  C   UNL     1      83.284  55.646  39.206  1.00  0.00     0.302 C 
ATOM     32  O   UNL     1      82.083  55.570  38.998  1.00  0.00    -0.253 OA
ATOM     33  C   UNL     1      84.332  55.608  38.137  1.00  0.00     0.139 C 
ENDBRANCH  30  31
ENDBRANCH   1  30
BRANCH  19  34
ATOM     34  C   UNL     1      88.213  47.562  41.262  1.00  0.00     0.310 C 
ATOM     35  O   UNL     1      89.039  47.051  40.522  1.00  0.00    -0.252 OA
BRANCH  34  36
ATOM     36  O   UNL     1      87.332  48.442  40.737  1.00  0.00    -0.481 OA
ATOM     37  H   UNL     1      86.914  48.842  41.528  1.00  0.00     0.296 HD
ENDBRANCH  34  36
ENDBRANCH  19  34
TORSDOF 4
ENDMDL
MODEL 2
REMARK VINA RESULT:    -4.337      2.021      8.336
REMARK INTER + INTRA:          -5.682
REMARK INTER:                  -4.762
REMARK INTRA:                  -0.920
REMARK UNBOUND:                -0.457
REMARK SMILES CC(=O)O[C@H]1CC[C@@]2(C)C(CC[C@@]3(C)C4=CC[C@@]5(C(=O)O)CCC(C)(C)CC5[C@]4(C)CCC23)C1(C)C
REMARK SMILES IDX 5 1 6 2 7 3 8 4 10 5 34 6 35 7 36 8 11 9 12 10 13 11 33 12
REMARK SMILES IDX 32 13 31 14 29 15 15 16 16 17 17 18 18 19 28 20 27 21 24 22
REMARK SMILES IDX 25 23 26 24 23 25 22 26 30 27 14 28 9 29 4 30 2 31 3 32 1 33
REMARK SMILES IDX 19 34 20 35 21 36
REMARK H PARENT 21 37
ROOT
ATOM      1  C   UNL     1      86.903  45.730  42.458  1.00  0.00     0.182 C 
ATOM      2  C   UNL     1      85.677  46.603  42.180  1.00  0.00     0.046 C 
ATOM      3  C   UNL     1      85.472  47.650  43.276  1.00  0.00     0.011 C 
ATOM      4  C   UNL     1      86.773  48.459  43.634  1.00  0.00    -0.025 C 
ATOM      5  C   UNL     1      87.954  48.109  42.663  1.00  0.00     0.005 C 
ATOM      6  C   UNL     1      88.229  46.567  42.446  1.00  0.00     0.005 C 
ATOM      7  C   UNL     1      88.851  46.401  41.028  1.00  0.00     0.015 C 
ATOM      8  C   UNL     1      89.259  45.985  43.438  1.00  0.00     0.015 C 
ATOM      9  C   UNL     1      89.223  48.934  42.989  1.00  0.00     0.006 C 
ATOM     10  C   UNL     1      88.991  50.449  42.917  1.00  0.00     0.012 C 
ATOM     11  C   UNL     1      87.773  50.966  43.731  1.00  0.00    -0.008 C 
ATOM     12  C   UNL     1      86.509  50.036  43.512  1.00  0.00     0.005 C 
ATOM     13  C   UNL     1      85.745  50.383  42.188  1.00  0.00     0.006 C 
ATOM     14  C   UNL     1      86.408  51.373  41.243  1.00  0.00     0.012 C 
ATOM     15  C   UNL     1      86.825  52.698  41.918  1.00  0.00    -0.007 C 
ATOM     16  C   UNL     1      87.380  52.430  43.330  1.00  0.00    -0.062 C 
ATOM     17  C   UNL     1      87.454  53.490  44.165  1.00  0.00    -0.025 C 
ATOM     18  C   UNL     1      86.884  54.829  43.814  1.00  0.00     0.046 C 
ATOM     19  C   UNL     1      85.501  54.668  43.160  1.00  0.00     0.075 C 
ATOM     20  C   UNL     1      85.551  53.664  41.948  1.00  0.00     0.017 C 
ATOM     21  C   UNL     1      85.313  54.397  40.602  1.00  0.00     0.012 C 
ATOM     22  C   UNL     1      83.984  55.190  40.546  1.00  0.00    -0.035 C 
ATOM     23  C   UNL     1      84.069  56.191  39.375  1.00  0.00     0.011 C 
ATOM     24  C   UNL     1      82.804  54.240  40.267  1.00  0.00     0.011 C 
ATOM     25  C   UNL     1      83.724  55.956  41.863  1.00  0.00     0.007 C 
ATOM     26  C   UNL     1      84.976  56.063  42.733  1.00  0.00     0.020 C 
ATOM     27  C   UNL     1      87.966  53.309  41.056  1.00  0.00     0.016 C 
ATOM     28  C   UNL     1      88.218  50.954  45.223  1.00  0.00     0.016 C 
ATOM     29  C   UNL     1      87.086  48.058  45.102  1.00  0.00     0.012 C 
ENDROOT
BRANCH   1  30
ATOM     30  O   UNL     1      86.734  45.082  43.739  1.00  0.00    -0.462 OA
BRANCH  30  31
ATOM     31  C   UNL     1      86.181  43.838  43.730  1.00  0.00     0.302 C 
ATOM     32  O   UNL     1      84.996  43.580  43.876  1.00  0.00    -0.253 OA
ATOM     33  C   UNL     1      87.251  42.811  43.517  1.00  0.00     0.139 C 
ENDBRANCH  30  31
ENDBRANCH   1  30
BRANCH  19  34
ATOM     34  C   UNL     1      84.534  54.128  44.236  1.00  0.00     0.310 C 
ATOM     35  O   UNL     1      84.320  54.586  45.348  1.00  0.00    -0.252 OA
BRANCH  34  36
ATOM     36  O   UNL     1      83.898  52.992  43.872  1.00  0.00    -0.481 OA
ATOM     37  H   UNL     1      84.149  52.885  42.931  1.00  0.00     0.296 HD
ENDBRANCH  34  36
ENDBRANCH  19  34
TORSDOF 4
ENDMDL
MODEL 3
REMARK VINA RESULT:    -4.318      2.397      8.426
REMARK INTER + INTRA:          -5.659
REMARK INTER:                  -4.969
REMARK INTRA:                  -0.690
REMARK UNBOUND:                -0.457
REMARK SMILES CC(=O)O[C@H]1CC[C@@]2(C)C(CC[C@@]3(C)C4=CC[C@@]5(C(=O)O)CCC(C)(C)CC5[C@]4(C)CCC23)C1(C)C
REMARK SMILES IDX 5 1 6 2 7 3 8 4 10 5 34 6 35 7 36 8 11 9 12 10 13 11 33 12
REMARK SMILES IDX 32 13 31 14 29 15 15 16 16 17 17 18 18 19 28 20 27 21 24 22
REMARK SMILES IDX 25 23 26 24 23 25 22 26 30 27 14 28 9 29 4 30 2 31 3 32 1 33
REMARK SMILES IDX 19 34 20 35 21 36
REMARK H PARENT 21 37
ROOT
ATOM      1  C   UNL     1      89.067  48.097  43.368  1.00  0.00     0.182 C 
ATOM      2  C   UNL     1      89.023  49.139  44.487  1.00  0.00     0.046 C 
ATOM      3  C   UNL     1      89.201  50.557  43.942  1.00  0.00     0.011 C 
ATOM      4  C   UNL     1      88.274  50.888  42.715  1.00  0.00    -0.025 C 
ATOM      5  C   UNL     1      87.259  49.727  42.431  1.00  0.00     0.005 C 
ATOM      6  C   UNL     1      87.880  48.275  42.359  1.00  0.00     0.005 C 
ATOM      7  C   UNL     1      86.770  47.272  42.791  1.00  0.00     0.015 C 
ATOM      8  C   UNL     1      88.301  47.863  40.931  1.00  0.00     0.015 C 
ATOM      9  C   UNL     1      86.318  50.069  41.249  1.00  0.00     0.006 C 
ATOM     10  C   UNL     1      85.511  51.354  41.475  1.00  0.00     0.012 C 
ATOM     11  C   UNL     1      86.350  52.593  41.888  1.00  0.00    -0.008 C 
ATOM     12  C   UNL     1      87.415  52.213  42.997  1.00  0.00     0.005 C 
ATOM     13  C   UNL     1      86.786  52.187  44.432  1.00  0.00     0.006 C 
ATOM     14  C   UNL     1      85.274  52.319  44.531  1.00  0.00     0.012 C 
ATOM     15  C   UNL     1      84.704  53.542  43.779  1.00  0.00    -0.007 C 
ATOM     16  C   UNL     1      85.451  53.750  42.448  1.00  0.00    -0.062 C 
ATOM     17  C   UNL     1      85.314  54.957  41.856  1.00  0.00    -0.025 C 
ATOM     18  C   UNL     1      84.610  56.100  42.520  1.00  0.00     0.046 C 
ATOM     19  C   UNL     1      85.018  56.193  44.000  1.00  0.00     0.075 C 
ATOM     20  C   UNL     1      84.823  54.816  44.739  1.00  0.00     0.017 C 
ATOM     21  C   UNL     1      83.681  54.897  45.785  1.00  0.00     0.012 C 
ATOM     22  C   UNL     1      83.876  56.012  46.841  1.00  0.00    -0.035 C 
ATOM     23  C   UNL     1      82.519  56.268  47.527  1.00  0.00     0.011 C 
ATOM     24  C   UNL     1      84.872  55.557  47.925  1.00  0.00     0.011 C 
ATOM     25  C   UNL     1      84.384  57.322  46.196  1.00  0.00     0.007 C 
ATOM     26  C   UNL     1      84.212  57.331  44.678  1.00  0.00     0.020 C 
ATOM     27  C   UNL     1      83.216  53.225  43.457  1.00  0.00     0.016 C 
ATOM     28  C   UNL     1      87.054  53.086  40.590  1.00  0.00     0.016 C 
ATOM     29  C   UNL     1      89.260  51.104  41.533  1.00  0.00     0.012 C 
ENDROOT
BRANCH   1  30
ATOM     30  O   UNL     1      90.331  48.207  42.675  1.00  0.00    -0.462 OA
BRANCH  30  31
ATOM     31  C   UNL     1      91.430  47.728  43.320  1.00  0.00     0.302 C 
ATOM     32  O   UNL     1      91.614  46.568  43.655  1.00  0.00    -0.253 OA
ATOM     33  C   UNL     1      92.397  48.845  43.568  1.00  0.00     0.139 C 
ENDBRANCH  30  31
ENDBRANCH   1  30
BRANCH  19  34
ATOM     34  C   UNL     1      86.507  56.599  44.051  1.00  0.00     0.310 C 
ATOM     35  O   UNL     1      87.464  55.898  44.342  1.00  0.00    -0.252 OA
BRANCH  34  36
ATOM     36  O   UNL     1      86.724  57.902  43.766  1.00  0.00    -0.481 OA
ATOM     37  H   UNL     1      86.725  57.921  42.786  1.00  0.00     0.296 HD
ENDBRANCH  34  36
ENDBRANCH  19  34
TORSDOF 4
ENDMDL
MODEL 4
REMARK VINA RESULT:    -3.298      2.091      2.832
REMARK INTER + INTRA:          -4.431
REMARK INTER:                  -5.428
REMARK INTRA:                   0.998
REMARK UNBOUND:                -0.457
REMARK SMILES CC(=O)O[C@H]1CC[C@@]2(C)C(CC[C@@]3(C)C4=CC[C@@]5(C(=O)O)CCC(C)(C)CC5[C@]4(C)CCC23)C1(C)C
REMARK SMILES IDX 5 1 6 2 7 3 8 4 10 5 34 6 35 7 36 8 11 9 12 10 13 11 33 12
REMARK SMILES IDX 32 13 31 14 29 15 15 16 16 17 17 18 18 19 28 20 27 21 24 22
REMARK SMILES IDX 25 23 26 24 23 25 22 26 30 27 14 28 9 29 4 30 2 31 3 32 1 33
REMARK SMILES IDX 19 34 20 35 21 36
REMARK H PARENT 21 37
ROOT
ATOM      1  C   UNL     1      84.067  56.186  44.483  1.00  0.00     0.182 C 
ATOM      2  C   UNL     1      83.573  55.088  43.539  1.00  0.00     0.046 C 
ATOM      3  C   UNL     1      84.733  54.409  42.811  1.00  0.00     0.011 C 
ATOM      4  C   UNL     1      85.907  53.964  43.758  1.00  0.00    -0.025 C 
ATOM      5  C   UNL     1      85.542  54.182  45.268  1.00  0.00     0.005 C 
ATOM      6  C   UNL     1      84.961  55.607  45.634  1.00  0.00     0.005 C 
ATOM      7  C   UNL     1      84.035  55.427  46.873  1.00  0.00     0.015 C 
ATOM      8  C   UNL     1      86.049  56.619  46.053  1.00  0.00     0.015 C 
ATOM      9  C   UNL     1      86.681  53.707  46.204  1.00  0.00     0.006 C 
ATOM     10  C   UNL     1      87.036  52.227  46.017  1.00  0.00     0.012 C 
ATOM     11  C   UNL     1      87.313  51.798  44.550  1.00  0.00    -0.008 C 
ATOM     12  C   UNL     1      86.228  52.404  43.568  1.00  0.00     0.005 C 
ATOM     13  C   UNL     1      84.912  51.553  43.546  1.00  0.00     0.006 C 
ATOM     14  C   UNL     1      84.788  50.438  44.574  1.00  0.00     0.012 C 
ATOM     15  C   UNL     1      85.990  49.467  44.590  1.00  0.00    -0.007 C 
ATOM     16  C   UNL     1      87.307  50.239  44.385  1.00  0.00    -0.062 C 
ATOM     17  C   UNL     1      88.388  49.511  44.027  1.00  0.00    -0.025 C 
ATOM     18  C   UNL     1      88.298  48.056  43.685  1.00  0.00     0.046 C 
ATOM     19  C   UNL     1      87.067  47.789  42.801  1.00  0.00     0.075 C 
ATOM     20  C   UNL     1      85.755  48.368  43.452  1.00  0.00     0.017 C 
ATOM     21  C   UNL     1      84.799  47.230  43.894  1.00  0.00     0.012 C 
ATOM     22  C   UNL     1      84.409  46.258  42.753  1.00  0.00    -0.035 C 
ATOM     23  C   UNL     1      83.838  44.975  43.388  1.00  0.00     0.011 C 
ATOM     24  C   UNL     1      83.307  46.879  41.873  1.00  0.00     0.011 C 
ATOM     25  C   UNL     1      85.627  45.902  41.871  1.00  0.00     0.007 C 
ATOM     26  C   UNL     1      86.955  46.265  42.535  1.00  0.00     0.020 C 
ATOM     27  C   UNL     1      86.025  48.810  45.999  1.00  0.00     0.016 C 
ATOM     28  C   UNL     1      88.733  52.336  44.207  1.00  0.00     0.016 C 
ATOM     29  C   UNL     1      87.112  54.839  43.317  1.00  0.00     0.012 C 
ENDROOT
BRANCH   1  30
ATOM     30  O   UNL     1      84.812  57.160  43.717  1.00  0.00    -0.462 OA
BRANCH  30  31
ATOM     31  C   UNL     1      85.075  58.349  44.324  1.00  0.00     0.302 C 
ATOM     32  O   UNL     1      84.301  58.982  45.026  1.00  0.00    -0.253 OA
ATOM     33  C   UNL     1      86.472  58.783  44.001  1.00  0.00     0.139 C 
ENDBRANCH  30  31
ENDBRANCH   1  30
BRANCH  19  34
ATOM     34  C   UNL     1      87.311  48.472  41.438  1.00  0.00     0.310 C 
ATOM     35  O   UNL     1      86.759  49.464  40.988  1.00  0.00    -0.252 OA
BRANCH  34  36
ATOM     36  O   UNL     1      88.229  47.841  40.673  1.00  0.00    -0.481 OA
ATOM     37  H   UNL     1      87.707  47.531  39.904  1.00  0.00     0.296 HD
ENDBRANCH  34  36
ENDBRANCH  19  34
TORSDOF 4
ENDMDL
MODEL 5
REMARK VINA RESULT:    -3.233      3.101      4.979
REMARK INTER + INTRA:          -4.352
REMARK INTER:                  -3.980
REMARK INTRA:                  -0.373
REMARK UNBOUND:                -0.457
REMARK SMILES CC(=O)O[C@H]1CC[C@@]2(C)C(CC[C@@]3(C)C4=CC[C@@]5(C(=O)O)CCC(C)(C)CC5[C@]4(C)CCC23)C1(C)C
REMARK SMILES IDX 5 1 6 2 7 3 8 4 10 5 34 6 35 7 36 8 11 9 12 10 13 11 33 12
REMARK SMILES IDX 32 13 31 14 29 15 15 16 16 17 17 18 18 19 28 20 27 21 24 22
REMARK SMILES IDX 25 23 26 24 23 25 22 26 30 27 14 28 9 29 4 30 2 31 3 32 1 33
REMARK SMILES IDX 19 34 20 35 21 36
REMARK H PARENT 21 37
ROOT
ATOM      1  C   UNL     1      86.696  53.824  46.159  1.00  0.00     0.182 C 
ATOM      2  C   UNL     1      87.165  52.453  46.652  1.00  0.00     0.046 C 
ATOM      3  C   UNL     1      86.042  51.417  46.583  1.00  0.00     0.011 C 
ATOM      4  C   UNL     1      85.290  51.384  45.201  1.00  0.00    -0.025 C 
ATOM      5  C   UNL     1      85.976  52.323  44.150  1.00  0.00     0.005 C 
ATOM      6  C   UNL     1      86.291  53.792  44.644  1.00  0.00     0.005 C 
ATOM      7  C   UNL     1      87.525  54.299  43.840  1.00  0.00     0.015 C 
ATOM      8  C   UNL     1      85.149  54.791  44.355  1.00  0.00     0.015 C 
ATOM      9  C   UNL     1      85.261  52.261  42.777  1.00  0.00     0.006 C 
ATOM     10  C   UNL     1      85.218  50.847  42.185  1.00  0.00     0.012 C 
ATOM     11  C   UNL     1      84.673  49.751  43.141  1.00  0.00    -0.008 C 
ATOM     12  C   UNL     1      85.295  49.901  44.590  1.00  0.00     0.005 C 
ATOM     13  C   UNL     1      86.718  49.252  44.690  1.00  0.00     0.006 C 
ATOM     14  C   UNL     1      87.357  48.775  43.395  1.00  0.00     0.012 C 
ATOM     15  C   UNL     1      86.457  47.835  42.563  1.00  0.00    -0.007 C 
ATOM     16  C   UNL     1      84.991  48.307  42.619  1.00  0.00    -0.062 C 
ATOM     17  C   UNL     1      84.051  47.412  42.245  1.00  0.00    -0.025 C 
ATOM     18  C   UNL     1      84.378  45.982  41.944  1.00  0.00     0.046 C 
ATOM     19  C   UNL     1      85.363  45.427  42.988  1.00  0.00     0.075 C 
ATOM     20  C   UNL     1      86.631  46.350  43.131  1.00  0.00     0.017 C 
ATOM     21  C   UNL     1      87.903  45.642  42.598  1.00  0.00     0.012 C 
ATOM     22  C   UNL     1      88.193  44.279  43.274  1.00  0.00    -0.035 C 
ATOM     23  C   UNL     1      89.188  43.503  42.388  1.00  0.00     0.011 C 
ATOM     24  C   UNL     1      88.855  44.492  44.649  1.00  0.00     0.011 C 
ATOM     25  C   UNL     1      86.901  43.448  43.452  1.00  0.00     0.007 C 
ATOM     26  C   UNL     1      85.746  43.975  42.601  1.00  0.00     0.020 C 
ATOM     27  C   UNL     1      86.942  47.928  41.088  1.00  0.00     0.016 C 
ATOM     28  C   UNL     1      83.129  49.944  43.179  1.00  0.00     0.016 C 
ATOM     29  C   UNL     1      83.844  51.843  45.538  1.00  0.00     0.012 C 
ENDROOT
BRANCH   1  30
ATOM     30  O   UNL     1      85.576  54.252  46.966  1.00  0.00    -0.462 OA
BRANCH  30  31
ATOM     31  C   UNL     1      85.515  55.574  47.282  1.00  0.00     0.302 C 
ATOM     32  O   UNL     1      86.454  56.356  47.278  1.00  0.00    -0.253 OA
ATOM     33  C   UNL     1      84.109  55.943  47.645  1.00  0.00     0.139 C 
ENDBRANCH  30  31
ENDBRANCH   1  30
BRANCH  19  34
ATOM     34  C   UNL     1      84.622  45.357  44.341  1.00  0.00     0.310 C 
ATOM     35  O   UNL     1      83.496  44.935  44.557  1.00  0.00    -0.252 OA
BRANCH  34  36
ATOM     36  O   UNL     1      85.329  45.867  45.373  1.00  0.00    -0.481 OA
ATOM     37  H   UNL     1      86.223  45.997  44.991  1.00  0.00     0.296 HD
ENDBRANCH  34  36
ENDBRANCH  19  34
TORSDOF 4
ENDMDL
MODEL 6
REMARK VINA RESULT:    -3.190      2.503      8.335
REMARK INTER + INTRA:          -4.300
REMARK INTER:                  -3.893
REMARK INTRA:                  -0.407
REMARK UNBOUND:                -0.457
REMARK SMILES CC(=O)O[C@H]1CC[C@@]2(C)C(CC[C@@]3(C)C4=CC[C@@]5(C(=O)O)CCC(C)(C)CC5[C@]4(C)CCC23)C1(C)C
REMARK SMILES IDX 5 1 6 2 7 3 8 4 10 5 34 6 35 7 36 8 11 9 12 10 13 11 33 12
REMARK SMILES IDX 32 13 31 14 29 15 15 16 16 17 17 18 18 19 28 20 27 21 24 22
REMARK SMILES IDX 25 23 26 24 23 25 22 26 30 27 14 28 9 29 4 30 2 31 3 32 1 33
REMARK SMILES IDX 19 34 20 35 21 36
REMARK H PARENT 21 37
ROOT
ATOM      1  C   UNL     1      86.162  46.324  42.024  1.00  0.00     0.182 C 
ATOM      2  C   UNL     1      85.047  47.371  41.990  1.00  0.00     0.046 C 
ATOM      3  C   UNL     1      84.852  48.029  43.356  1.00  0.00     0.011 C 
ATOM      4  C   UNL     1      86.188  48.531  44.018  1.00  0.00    -0.025 C 
ATOM      5  C   UNL     1      87.405  48.379  43.042  1.00  0.00     0.005 C 
ATOM      6  C   UNL     1      87.556  46.967  42.346  1.00  0.00     0.005 C 
ATOM      7  C   UNL     1      88.271  47.194  40.982  1.00  0.00     0.015 C 
ATOM      8  C   UNL     1      88.447  45.988  43.142  1.00  0.00     0.015 C 
ATOM      9  C   UNL     1      88.715  48.911  43.676  1.00  0.00     0.006 C 
ATOM     10  C   UNL     1      88.627  50.385  44.091  1.00  0.00     0.012 C 
ATOM     11  C   UNL     1      87.401  50.748  44.972  1.00  0.00    -0.008 C 
ATOM     12  C   UNL     1      86.079  50.084  44.404  1.00  0.00     0.005 C 
ATOM     13  C   UNL     1      85.458  50.918  43.232  1.00  0.00     0.006 C 
ATOM     14  C   UNL     1      86.281  52.078  42.692  1.00  0.00     0.012 C 
ATOM     15  C   UNL     1      86.762  53.063  43.780  1.00  0.00    -0.007 C 
ATOM     16  C   UNL     1      87.175  52.298  45.052  1.00  0.00    -0.062 C 
ATOM     17  C   UNL     1      87.278  53.020  46.189  1.00  0.00    -0.025 C 
ATOM     18  C   UNL     1      86.862  54.457  46.267  1.00  0.00     0.046 C 
ATOM     19  C   UNL     1      85.527  54.668  45.534  1.00  0.00     0.075 C 
ATOM     20  C   UNL     1      85.582  54.104  44.064  1.00  0.00     0.017 C 
ATOM     21  C   UNL     1      85.520  55.250  43.021  1.00  0.00     0.012 C 
ATOM     22  C   UNL     1      84.277  56.163  43.165  1.00  0.00    -0.035 C 
ATOM     23  C   UNL     1      84.546  57.469  42.389  1.00  0.00     0.011 C 
ATOM     24  C   UNL     1      83.041  55.490  42.538  1.00  0.00     0.011 C 
ATOM     25  C   UNL     1      83.984  56.493  44.646  1.00  0.00     0.007 C 
ATOM     26  C   UNL     1      85.166  56.176  45.560  1.00  0.00     0.020 C 
ATOM     27  C   UNL     1      88.019  53.785  43.217  1.00  0.00     0.016 C 
ATOM     28  C   UNL     1      87.722  50.211  46.397  1.00  0.00     0.016 C 
ATOM     29  C   UNL     1      86.345  47.650  45.288  1.00  0.00     0.012 C 
ENDROOT
BRANCH   1  30
ATOM     30  O   UNL     1      85.834  45.324  43.015  1.00  0.00    -0.462 OA
BRANCH  30  31
ATOM     31  C   UNL     1      85.659  44.050  42.569  1.00  0.00     0.302 C 
ATOM     32  O   UNL     1      84.854  43.691  41.724  1.00  0.00    -0.253 OA
ATOM     33  C   UNL     1      86.609  43.132  43.276  1.00  0.00     0.139 C 
ENDBRANCH  30  31
ENDBRANCH   1  30
BRANCH  19  34
ATOM     34  C   UNL     1      84.432  53.925  46.330  1.00  0.00     0.310 C 
ATOM     35  O   UNL     1      83.983  54.209  47.429  1.00  0.00    -0.252 OA
BRANCH  34  36
ATOM     36  O   UNL     1      83.973  52.814  45.712  1.00  0.00    -0.481 OA
ATOM     37  H   UNL     1      83.003  52.949  45.696  1.00  0.00     0.296 HD
ENDBRANCH  34  36
ENDBRANCH  19  34
TORSDOF 4
ENDMDL
MODEL 7
REMARK VINA RESULT:    -3.032      2.804      5.031
REMARK INTER + INTRA:          -4.110
REMARK INTER:                  -4.260
REMARK INTRA:                   0.150
REMARK UNBOUND:                -0.457
REMARK SMILES CC(=O)O[C@H]1CC[C@@]2(C)C(CC[C@@]3(C)C4=CC[C@@]5(C(=O)O)CCC(C)(C)CC5[C@]4(C)CCC23)C1(C)C
REMARK SMILES IDX 5 1 6 2 7 3 8 4 10 5 34 6 35 7 36 8 11 9 12 10 13 11 33 12
REMARK SMILES IDX 32 13 31 14 29 15 15 16 16 17 17 18 18 19 28 20 27 21 24 22
REMARK SMILES IDX 25 23 26 24 23 25 22 26 30 27 14 28 9 29 4 30 2 31 3 32 1 33
REMARK SMILES IDX 19 34 20 35 21 36
REMARK H PARENT 21 37
ROOT
ATOM      1  C   UNL     1      85.215  56.036  46.537  1.00  0.00     0.182 C 
ATOM      2  C   UNL     1      86.042  54.827  46.979  1.00  0.00     0.046 C 
ATOM      3  C   UNL     1      85.473  53.522  46.420  1.00  0.00     0.011 C 
ATOM      4  C   UNL     1      85.172  53.569  44.877  1.00  0.00    -0.025 C 
ATOM      5  C   UNL     1      85.677  54.906  44.232  1.00  0.00     0.005 C 
ATOM      6  C   UNL     1      85.254  56.232  44.982  1.00  0.00     0.005 C 
ATOM      7  C   UNL     1      86.349  57.300  44.692  1.00  0.00     0.015 C 
ATOM      8  C   UNL     1      83.925  56.826  44.465  1.00  0.00     0.015 C 
ATOM      9  C   UNL     1      85.418  54.936  42.705  1.00  0.00     0.006 C 
ATOM     10  C   UNL     1      86.085  53.774  41.958  1.00  0.00     0.012 C 
ATOM     11  C   UNL     1      85.791  52.364  42.540  1.00  0.00    -0.008 C 
ATOM     12  C   UNL     1      85.914  52.365  44.119  1.00  0.00     0.005 C 
ATOM     13  C   UNL     1      87.402  52.228  44.594  1.00  0.00     0.006 C 
ATOM     14  C   UNL     1      88.482  52.317  43.527  1.00  0.00     0.012 C 
ATOM     15  C   UNL     1      88.267  51.356  42.337  1.00  0.00    -0.007 C 
ATOM     16  C   UNL     1      86.772  51.280  41.973  1.00  0.00    -0.062 C 
ATOM     17  C   UNL     1      86.386  50.237  41.205  1.00  0.00    -0.025 C 
ATOM     18  C   UNL     1      87.314  49.116  40.850  1.00  0.00     0.046 C 
ATOM     19  C   UNL     1      88.137  48.693  42.078  1.00  0.00     0.075 C 
ATOM     20  C   UNL     1      88.859  49.926  42.740  1.00  0.00     0.017 C 
ATOM     21  C   UNL     1      90.398  49.835  42.565  1.00  0.00     0.012 C 
ATOM     22  C   UNL     1      91.017  48.530  43.122  1.00  0.00    -0.035 C 
ATOM     23  C   UNL     1      92.426  48.368  42.517  1.00  0.00     0.011 C 
ATOM     24  C   UNL     1      91.170  48.619  44.653  1.00  0.00     0.011 C 
ATOM     25  C   UNL     1      90.156  47.297  42.765  1.00  0.00     0.007 C 
ATOM     26  C   UNL     1      89.144  47.591  41.659  1.00  0.00     0.020 C 
ATOM     27  C   UNL     1      89.033  51.955  41.124  1.00  0.00     0.016 C 
ATOM     28  C   UNL     1      84.340  52.012  42.098  1.00  0.00     0.016 C 
ATOM     29  C   UNL     1      83.628  53.420  44.780  1.00  0.00     0.012 C 
ENDROOT
BRANCH   1  30
ATOM     30  O   UNL     1      83.851  55.857  46.983  1.00  0.00    -0.462 OA
BRANCH  30  31
ATOM     31  C   UNL     1      83.672  55.227  48.176  1.00  0.00     0.302 C 
ATOM     32  O   UNL     1      84.340  55.397  49.184  1.00  0.00    -0.253 OA
ATOM     33  C   UNL     1      82.520  54.274  48.075  1.00  0.00     0.139 C 
ENDBRANCH  30  31
ENDBRANCH   1  30
BRANCH  19  34
ATOM     34  C   UNL     1      87.166  48.057  43.097  1.00  0.00     0.310 C 
ATOM     35  O   UNL     1      86.821  48.502  44.180  1.00  0.00    -0.252 OA
BRANCH  34  36
ATOM     36  O   UNL     1      86.695  46.849  42.715  1.00  0.00    -0.481 OA
ATOM     37  H   UNL     1      86.132  47.061  41.941  1.00  0.00     0.296 HD
ENDBRANCH  34  36
ENDBRANCH  19  34
TORSDOF 4
ENDMDL
MODEL 8
REMARK VINA RESULT:    -2.991      2.896      8.500
REMARK INTER + INTRA:          -4.060
REMARK INTER:                  -4.441
REMARK INTRA:                   0.381
REMARK UNBOUND:                -0.457
REMARK SMILES CC(=O)O[C@H]1CC[C@@]2(C)C(CC[C@@]3(C)C4=CC[C@@]5(C(=O)O)CCC(C)(C)CC5[C@]4(C)CCC23)C1(C)C
REMARK SMILES IDX 5 1 6 2 7 3 8 4 10 5 34 6 35 7 36 8 11 9 12 10 13 11 33 12
REMARK SMILES IDX 32 13 31 14 29 15 15 16 16 17 17 18 18 19 28 20 27 21 24 22
REMARK SMILES IDX 25 23 26 24 23 25 22 26 30 27 14 28 9 29 4 30 2 31 3 32 1 33
REMARK SMILES IDX 19 34 20 35 21 36
REMARK H PARENT 21 37
ROOT
ATOM      1  C   UNL     1      87.697  48.291  41.786  1.00  0.00     0.182 C 
ATOM      2  C   UNL     1      86.634  49.378  41.613  1.00  0.00     0.046 C 
ATOM      3  C   UNL     1      85.769  49.524  42.865  1.00  0.00     0.011 C 
ATOM      4  C   UNL     1      86.595  49.636  44.200  1.00  0.00    -0.025 C 
ATOM      5  C   UNL     1      88.135  49.731  43.917  1.00  0.00     0.005 C 
ATOM      6  C   UNL     1      88.717  48.649  42.922  1.00  0.00     0.005 C 
ATOM      7  C   UNL     1      89.959  49.279  42.226  1.00  0.00     0.015 C 
ATOM      8  C   UNL     1      89.223  47.375  43.634  1.00  0.00     0.015 C 
ATOM      9  C   UNL     1      88.946  49.882  45.228  1.00  0.00     0.006 C 
ATOM     10  C   UNL     1      88.543  51.115  46.047  1.00  0.00     0.012 C 
ATOM     11  C   UNL     1      87.021  51.251  46.322  1.00  0.00    -0.008 C 
ATOM     12  C   UNL     1      86.179  50.954  45.014  1.00  0.00     0.005 C 
ATOM     13  C   UNL     1      86.099  52.202  44.069  1.00  0.00     0.006 C 
ATOM     14  C   UNL     1      86.969  53.398  44.423  1.00  0.00     0.012 C 
ATOM     15  C   UNL     1      86.799  53.886  45.879  1.00  0.00    -0.007 C 
ATOM     16  C   UNL     1      86.644  52.686  46.832  1.00  0.00    -0.062 C 
ATOM     17  C   UNL     1      86.143  52.946  48.059  1.00  0.00    -0.025 C 
ATOM     18  C   UNL     1      85.609  54.293  48.439  1.00  0.00     0.046 C 
ATOM     19  C   UNL     1      84.752  54.870  47.299  1.00  0.00     0.075 C 
ATOM     20  C   UNL     1      85.533  54.861  45.931  1.00  0.00     0.017 C 
ATOM     21  C   UNL     1      85.857  56.303  45.462  1.00  0.00     0.012 C 
ATOM     22  C   UNL     1      84.612  57.214  45.326  1.00  0.00    -0.035 C 
ATOM     23  C   UNL     1      85.090  58.680  45.283  1.00  0.00     0.011 C 
ATOM     24  C   UNL     1      83.875  56.921  44.005  1.00  0.00     0.011 C 
ATOM     25  C   UNL     1      83.637  57.022  46.510  1.00  0.00     0.007 C 
ATOM     26  C   UNL     1      84.285  56.296  47.688  1.00  0.00     0.020 C 
ATOM     27  C   UNL     1      88.102  54.644  46.260  1.00  0.00     0.016 C 
ATOM     28  C   UNL     1      86.692  50.217  47.439  1.00  0.00     0.016 C 
ATOM     29  C   UNL     1      86.225  48.352  44.992  1.00  0.00     0.012 C 
ENDROOT
BRANCH   1  30
ATOM     30  O   UNL     1      87.039  47.038  42.085  1.00  0.00    -0.462 OA
BRANCH  30  31
ATOM     31  C   UNL     1      87.695  45.900  41.731  1.00  0.00     0.302 C 
ATOM     32  O   UNL     1      88.649  45.829  40.972  1.00  0.00    -0.253 OA
ATOM     33  C   UNL     1      87.067  44.723  42.412  1.00  0.00     0.139 C 
ENDBRANCH  30  31
ENDBRANCH   1  30
BRANCH  19  34
ATOM     34  C   UNL     1      83.486  53.994  47.175  1.00  0.00     0.310 C 
ATOM     35  O   UNL     1      82.520  53.966  47.921  1.00  0.00    -0.252 OA
BRANCH  34  36
ATOM     36  O   UNL     1      83.512  53.151  46.120  1.00  0.00    -0.481 OA
ATOM     37  H   UNL     1      82.872  52.453  46.373  1.00  0.00     0.296 HD
ENDBRANCH  34  36
ENDBRANCH  19  34
TORSDOF 4
ENDMDL
