MODEL 1
REMARK VINA RESULT:    -7.717      0.000      0.000
REMARK INTER + INTRA:         -10.550
REMARK INTER:                 -10.105
REMARK INTRA:                  -0.445
REMARK UNBOUND:                -0.352
REMARK SMILES COc1cc(-c2oc3cc(O)c(OC)c(O)c3c(=O)c2OC)ccc1O
REMARK SMILES IDX 6 1 7 2 8 3 9 4 10 5 12 6 15 7 17 8 18 9 19 10 20 11 5 12
REMARK SMILES IDX 3 13 4 14 25 15 24 16 23 17 2 18 1 19 26 20 21 22 22 23
REMARK SMILES IDX 11 24 16 26 13 28 14 29
REMARK H PARENT 26 21 11 25 16 27
ROOT
ATOM      1  C   UNL     1      86.703  50.343  42.337  1.00  0.00     0.180 C 
ATOM      2  O   UNL     1      85.939  49.590  43.211  1.00  0.00    -0.452 OA
ATOM      3  C   UNL     1      86.116  48.233  43.247  1.00  0.00     0.146 A 
ATOM      4  C   UNL     1      85.322  47.526  44.142  1.00  0.00     0.098 A 
ATOM      5  C   UNL     1      85.461  46.147  44.220  1.00  0.00     0.165 A 
ATOM      6  C   UNL     1      86.374  45.436  43.423  1.00  0.00     0.203 A 
ATOM      7  C   UNL     1      87.169  46.159  42.525  1.00  0.00     0.177 A 
ATOM      8  C   UNL     1      87.034  47.562  42.444  1.00  0.00     0.115 A 
ATOM      9  C   UNL     1      87.853  48.366  41.521  1.00  0.00     0.239 C 
ATOM     10  O   UNL     1      88.662  47.799  40.790  1.00  0.00    -0.285 OA
ATOM     11  C   UNL     1      87.653  49.845  41.521  1.00  0.00     0.210 C 
ENDROOT
BRANCH   1  12
ATOM     12  C   UNL     1      86.392  51.787  42.416  1.00  0.00     0.025 A 
ATOM     13  C   UNL     1      85.123  53.701  41.603  1.00  0.00     0.161 A 
ATOM     14  C   UNL     1      85.418  52.337  41.560  1.00  0.00     0.062 A 
ATOM     15  C   UNL     1      85.815  54.513  42.509  1.00  0.00     0.157 A 
ATOM     16  C   UNL     1      86.785  53.995  43.355  1.00  0.00     0.051 A 
ATOM     17  C   UNL     1      87.076  52.632  43.305  1.00  0.00     0.016 A 
BRANCH  13  18
ATOM     18  O   UNL     1      84.198  54.355  40.830  1.00  0.00    -0.493 OA
ATOM     19  C   UNL     1      84.534  54.553  39.462  1.00  0.00     0.278 C 
ENDBRANCH  13  18
BRANCH  15  20
ATOM     20  O   UNL     1      85.548  55.852  42.576  1.00  0.00    -0.504 OA
ATOM     21  H   UNL     1      86.399  56.290  42.380  1.00  0.00     0.293 HD
ENDBRANCH  15  20
ENDBRANCH   1  12
BRANCH  11  22
ATOM     22  O   UNL     1      88.389  50.665  40.679  1.00  0.00    -0.490 OA
ATOM     23  C   UNL     1      89.688  50.985  41.167  1.00  0.00     0.278 C 
ENDBRANCH  11  22
BRANCH   5  24
ATOM     24  O   UNL     1      84.665  45.478  45.114  1.00  0.00    -0.504 OA
ATOM     25  H   UNL     1      84.477  46.128  45.821  1.00  0.00     0.293 HD
ENDBRANCH   5  24
BRANCH   7  26
ATOM     26  O   UNL     1      88.079  45.503  41.733  1.00  0.00    -0.504 OA
ATOM     27  H   UNL     1      88.952  45.492  42.187  1.00  0.00     0.293 HD
ENDBRANCH   7  26
BRANCH   6  28
ATOM     28  O   UNL     1      86.348  44.085  43.658  1.00  0.00    -0.490 OA
ATOM     29  C   UNL     1      87.528  43.462  44.145  1.00  0.00     0.278 C 
ENDBRANCH   6  28
TORSDOF 7
ENDMDL
MODEL 2
REMARK VINA RESULT:    -7.694      2.183      7.411
REMARK INTER + INTRA:         -10.519
REMARK INTER:                 -10.001
REMARK INTRA:                  -0.518
REMARK UNBOUND:                -0.352
REMARK SMILES COc1cc(-c2oc3cc(O)c(OC)c(O)c3c(=O)c2OC)ccc1O
REMARK SMILES IDX 6 1 7 2 8 3 9 4 10 5 12 6 15 7 17 8 18 9 19 10 20 11 5 12
REMARK SMILES IDX 3 13 4 14 25 15 24 16 23 17 2 18 1 19 26 20 21 22 22 23
REMARK SMILES IDX 11 24 16 26 13 28 14 29
REMARK H PARENT 26 21 11 25 16 27
ROOT
ATOM      1  C   UNL     1      87.921  50.973  42.589  1.00  0.00     0.180 C 
ATOM      2  O   UNL     1      87.673  51.289  43.914  1.00  0.00    -0.452 OA
ATOM      3  C   UNL     1      86.980  52.433  44.203  1.00  0.00     0.146 A 
ATOM      4  C   UNL     1      86.760  52.703  45.549  1.00  0.00     0.098 A 
ATOM      5  C   UNL     1      86.063  53.851  45.900  1.00  0.00     0.165 A 
ATOM      6  C   UNL     1      85.574  54.756  44.943  1.00  0.00     0.203 A 
ATOM      7  C   UNL     1      85.801  54.475  43.590  1.00  0.00     0.177 A 
ATOM      8  C   UNL     1      86.507  53.307  43.228  1.00  0.00     0.115 A 
ATOM      9  C   UNL     1      86.764  52.964  41.819  1.00  0.00     0.239 C 
ATOM     10  O   UNL     1      86.370  53.724  40.937  1.00  0.00    -0.285 OA
ATOM     11  C   UNL     1      87.500  51.698  41.534  1.00  0.00     0.210 C 
ENDROOT
BRANCH   1  12
ATOM     12  C   UNL     1      88.678  49.710  42.443  1.00  0.00     0.025 A 
ATOM     13  C   UNL     1      88.675  47.295  42.125  1.00  0.00     0.161 A 
ATOM     14  C   UNL     1      87.983  48.502  42.244  1.00  0.00     0.062 A 
ATOM     15  C   UNL     1      90.071  47.307  42.211  1.00  0.00     0.157 A 
ATOM     16  C   UNL     1      90.777  48.484  42.416  1.00  0.00     0.051 A 
ATOM     17  C   UNL     1      90.079  49.686  42.537  1.00  0.00     0.016 A 
BRANCH  13  18
ATOM     18  O   UNL     1      88.118  46.058  41.925  1.00  0.00    -0.493 OA
ATOM     19  C   UNL     1      86.916  45.777  42.631  1.00  0.00     0.278 C 
ENDBRANCH  13  18
BRANCH  15  20
ATOM     20  O   UNL     1      90.778  46.142  42.096  1.00  0.00    -0.504 OA
ATOM     21  H   UNL     1      91.709  46.395  42.254  1.00  0.00     0.293 HD
ENDBRANCH  15  20
ENDBRANCH   1  12
BRANCH  11  22
ATOM     22  O   UNL     1      87.778  51.311  40.232  1.00  0.00    -0.490 OA
ATOM     23  C   UNL     1      88.908  51.963  39.659  1.00  0.00     0.278 C 
ENDBRANCH  11  22
BRANCH   5  24
ATOM     24  O   UNL     1      85.860  54.088  47.235  1.00  0.00    -0.504 OA
ATOM     25  H   UNL     1      85.420  54.961  47.274  1.00  0.00     0.293 HD
ENDBRANCH   5  24
BRANCH   7  26
ATOM     26  O   UNL     1      85.333  55.331  42.624  1.00  0.00    -0.504 OA
ATOM     27  H   UNL     1      85.169  54.823  41.798  1.00  0.00     0.293 HD
ENDBRANCH   7  26
BRANCH   6  28
ATOM     28  O   UNL     1      84.917  55.822  45.504  1.00  0.00    -0.490 OA
ATOM     29  C   UNL     1      85.600  57.065  45.594  1.00  0.00     0.278 C 
ENDBRANCH   6  28
TORSDOF 7
ENDMDL
MODEL 3
REMARK VINA RESULT:    -7.600      3.007      8.121
REMARK INTER + INTRA:         -10.396
REMARK INTER:                  -9.908
REMARK INTRA:                  -0.488
REMARK UNBOUND:                -0.352
REMARK SMILES COc1cc(-c2oc3cc(O)c(OC)c(O)c3c(=O)c2OC)ccc1O
REMARK SMILES IDX 6 1 7 2 8 3 9 4 10 5 12 6 15 7 17 8 18 9 19 10 20 11 5 12
REMARK SMILES IDX 3 13 4 14 25 15 24 16 23 17 2 18 1 19 26 20 21 22 22 23
REMARK SMILES IDX 11 24 16 26 13 28 14 29
REMARK H PARENT 26 21 11 25 16 27
ROOT
ATOM      1  C   UNL     1      84.512  51.824  43.717  1.00  0.00     0.180 C 
ATOM      2  O   UNL     1      84.200  52.408  44.933  1.00  0.00    -0.452 OA
ATOM      3  C   UNL     1      84.605  53.692  45.175  1.00  0.00     0.146 A 
ATOM      4  C   UNL     1      84.266  54.227  46.412  1.00  0.00     0.098 A 
ATOM      5  C   UNL     1      84.653  55.527  46.712  1.00  0.00     0.165 A 
ATOM      6  C   UNL     1      85.381  56.322  45.811  1.00  0.00     0.203 A 
ATOM      7  C   UNL     1      85.717  55.772  44.567  1.00  0.00     0.177 A 
ATOM      8  C   UNL     1      85.324  54.452  44.257  1.00  0.00     0.115 A 
ATOM      9  C   UNL     1      85.648  53.833  42.960  1.00  0.00     0.239 C 
ATOM     10  O   UNL     1      86.293  54.476  42.135  1.00  0.00    -0.285 OA
ATOM     11  C   UNL     1      85.171  52.441  42.716  1.00  0.00     0.210 C 
ENDROOT
BRANCH   1  12
ATOM     12  C   UNL     1      84.006  50.438  43.610  1.00  0.00     0.025 A 
ATOM     13  C   UNL     1      84.384  48.047  43.883  1.00  0.00     0.161 A 
ATOM     14  C   UNL     1      84.832  49.365  43.995  1.00  0.00     0.062 A 
ATOM     15  C   UNL     1      83.101  47.812  43.377  1.00  0.00     0.157 A 
ATOM     16  C   UNL     1      82.273  48.854  42.982  1.00  0.00     0.051 A 
ATOM     17  C   UNL     1      82.729  50.167  43.094  1.00  0.00     0.016 A 
BRANCH  13  18
ATOM     18  O   UNL     1      85.085  46.920  44.227  1.00  0.00    -0.493 OA
ATOM     19  C   UNL     1      86.117  46.513  43.336  1.00  0.00     0.278 C 
ENDBRANCH  13  18
BRANCH  15  20
ATOM     20  O   UNL     1      82.632  46.533  43.256  1.00  0.00    -0.504 OA
ATOM     21  H   UNL     1      81.923  46.587  42.585  1.00  0.00     0.293 HD
ENDBRANCH  15  20
ENDBRANCH   1  12
BRANCH  11  22
ATOM     22  O   UNL     1      85.439  51.794  41.518  1.00  0.00    -0.490 OA
ATOM     23  C   UNL     1      86.771  51.303  41.407  1.00  0.00     0.278 C 
ENDBRANCH  11  22
BRANCH   5  24
ATOM     24  O   UNL     1      84.300  56.027  47.938  1.00  0.00    -0.504 OA
ATOM     25  H   UNL     1      83.957  55.258  48.437  1.00  0.00     0.293 HD
ENDBRANCH   5  24
BRANCH   7  26
ATOM     26  O   UNL     1      86.422  56.519  43.657  1.00  0.00    -0.504 OA
ATOM     27  H   UNL     1      87.385  56.363  43.789  1.00  0.00     0.293 HD
ENDBRANCH   7  26
BRANCH   6  28
ATOM     28  O   UNL     1      85.660  57.570  46.306  1.00  0.00    -0.490 OA
ATOM     29  C   UNL     1      84.929  58.678  45.798  1.00  0.00     0.278 C 
ENDBRANCH   6  28
TORSDOF 7
ENDMDL
MODEL 4
REMARK VINA RESULT:    -7.506      3.141      4.498
REMARK INTER + INTRA:         -10.271
REMARK INTER:                  -9.941
REMARK INTRA:                  -0.330
REMARK UNBOUND:                -0.352
REMARK SMILES COc1cc(-c2oc3cc(O)c(OC)c(O)c3c(=O)c2OC)ccc1O
REMARK SMILES IDX 6 1 7 2 8 3 9 4 10 5 12 6 15 7 17 8 18 9 19 10 20 11 5 12
REMARK SMILES IDX 3 13 4 14 25 15 24 16 23 17 2 18 1 19 26 20 21 22 22 23
REMARK SMILES IDX 11 24 16 26 13 28 14 29
REMARK H PARENT 26 21 11 25 16 27
ROOT
ATOM      1  C   UNL     1      84.415  52.288  43.466  1.00  0.00     0.180 C 
ATOM      2  O   UNL     1      83.084  51.937  43.320  1.00  0.00    -0.452 OA
ATOM      3  C   UNL     1      82.734  50.616  43.399  1.00  0.00     0.146 A 
ATOM      4  C   UNL     1      81.385  50.320  43.244  1.00  0.00     0.098 A 
ATOM      5  C   UNL     1      80.974  48.995  43.315  1.00  0.00     0.165 A 
ATOM      6  C   UNL     1      81.875  47.940  43.535  1.00  0.00     0.203 A 
ATOM      7  C   UNL     1      83.232  48.250  43.690  1.00  0.00     0.177 A 
ATOM      8  C   UNL     1      83.654  49.595  43.622  1.00  0.00     0.115 A 
ATOM      9  C   UNL     1      85.069  49.971  43.786  1.00  0.00     0.239 C 
ATOM     10  O   UNL     1      85.905  49.090  43.969  1.00  0.00    -0.285 OA
ATOM     11  C   UNL     1      85.415  51.421  43.718  1.00  0.00     0.210 C 
ENDROOT
BRANCH   1  12
ATOM     12  C   UNL     1      84.628  53.748  43.353  1.00  0.00     0.025 A 
ATOM     13  C   UNL     1      85.208  55.864  44.412  1.00  0.00     0.161 A 
ATOM     14  C   UNL     1      85.020  54.482  44.489  1.00  0.00     0.062 A 
ATOM     15  C   UNL     1      84.995  56.506  43.188  1.00  0.00     0.157 A 
ATOM     16  C   UNL     1      84.599  55.804  42.058  1.00  0.00     0.051 A 
ATOM     17  C   UNL     1      84.411  54.425  42.143  1.00  0.00     0.016 A 
BRANCH  13  18
ATOM     18  O   UNL     1      85.592  56.688  45.439  1.00  0.00    -0.493 OA
ATOM     19  C   UNL     1      85.928  56.060  46.670  1.00  0.00     0.278 C 
ENDBRANCH  13  18
BRANCH  15  20
ATOM     20  O   UNL     1      85.172  57.858  43.080  1.00  0.00    -0.504 OA
ATOM     21  H   UNL     1      86.054  57.965  42.673  1.00  0.00     0.293 HD
ENDBRANCH  15  20
ENDBRANCH   1  12
BRANCH  11  22
ATOM     22  O   UNL     1      86.726  51.849  43.864  1.00  0.00    -0.490 OA
ATOM     23  C   UNL     1      87.494  51.791  42.666  1.00  0.00     0.278 C 
ENDBRANCH  11  22
BRANCH   5  24
ATOM     24  O   UNL     1      79.637  48.736  43.161  1.00  0.00    -0.504 OA
ATOM     25  H   UNL     1      79.454  48.906  42.215  1.00  0.00     0.293 HD
ENDBRANCH   5  24
BRANCH   7  26
ATOM     26  O   UNL     1      84.142  47.247  43.913  1.00  0.00    -0.504 OA
ATOM     27  H   UNL     1      84.186  47.062  44.878  1.00  0.00     0.293 HD
ENDBRANCH   7  26
BRANCH   6  28
ATOM     28  O   UNL     1      81.261  46.713  43.568  1.00  0.00    -0.490 OA
ATOM     29  C   UNL     1      80.837  46.204  44.825  1.00  0.00     0.278 C 
ENDBRANCH   6  28
TORSDOF 7
ENDMDL
MODEL 5
REMARK VINA RESULT:    -7.468      3.169      8.430
REMARK INTER + INTRA:         -10.221
REMARK INTER:                  -9.720
REMARK INTRA:                  -0.501
REMARK UNBOUND:                -0.352
REMARK SMILES COc1cc(-c2oc3cc(O)c(OC)c(O)c3c(=O)c2OC)ccc1O
REMARK SMILES IDX 6 1 7 2 8 3 9 4 10 5 12 6 15 7 17 8 18 9 19 10 20 11 5 12
REMARK SMILES IDX 3 13 4 14 25 15 24 16 23 17 2 18 1 19 26 20 21 22 22 23
REMARK SMILES IDX 11 24 16 26 13 28 14 29
REMARK H PARENT 26 21 11 25 16 27
ROOT
ATOM      1  C   UNL     1      86.926  51.495  44.782  1.00  0.00     0.180 C 
ATOM      2  O   UNL     1      86.925  52.649  44.018  1.00  0.00    -0.452 OA
ATOM      3  C   UNL     1      86.597  53.837  44.613  1.00  0.00     0.146 A 
ATOM      4  C   UNL     1      86.611  54.964  43.799  1.00  0.00     0.098 A 
ATOM      5  C   UNL     1      86.286  56.197  44.351  1.00  0.00     0.165 A 
ATOM      6  C   UNL     1      85.938  56.347  45.704  1.00  0.00     0.203 A 
ATOM      7  C   UNL     1      85.928  55.204  46.514  1.00  0.00     0.177 A 
ATOM      8  C   UNL     1      86.261  53.950  45.959  1.00  0.00     0.115 A 
ATOM      9  C   UNL     1      86.270  52.722  46.772  1.00  0.00     0.239 C 
ATOM     10  O   UNL     1      85.964  52.789  47.960  1.00  0.00    -0.285 OA
ATOM     11  C   UNL     1      86.655  51.447  46.101  1.00  0.00     0.210 C 
ENDROOT
BRANCH   1  12
ATOM     12  C   UNL     1      87.299  50.299  43.996  1.00  0.00     0.025 A 
ATOM     13  C   UNL     1      89.025  48.966  42.908  1.00  0.00     0.161 A 
ATOM     14  C   UNL     1      88.651  50.077  43.667  1.00  0.00     0.062 A 
ATOM     15  C   UNL     1      88.032  48.080  42.477  1.00  0.00     0.157 A 
ATOM     16  C   UNL     1      86.694  48.283  42.780  1.00  0.00     0.051 A 
ATOM     17  C   UNL     1      86.327  49.396  43.536  1.00  0.00     0.016 A 
BRANCH  13  18
ATOM     18  O   UNL     1      90.300  48.637  42.528  1.00  0.00    -0.493 OA
ATOM     19  C   UNL     1      91.253  48.462  43.570  1.00  0.00     0.278 C 
ENDBRANCH  13  18
BRANCH  15  20
ATOM     20  O   UNL     1      88.367  46.982  41.733  1.00  0.00    -0.504 OA
ATOM     21  H   UNL     1      89.258  46.729  42.043  1.00  0.00     0.293 HD
ENDBRANCH  15  20
ENDBRANCH   1  12
BRANCH  11  22
ATOM     22  O   UNL     1      86.687  50.251  46.804  1.00  0.00    -0.490 OA
ATOM     23  C   UNL     1      87.839  50.090  47.626  1.00  0.00     0.278 C 
ENDBRANCH  11  22
BRANCH   5  24
ATOM     24  O   UNL     1      86.312  57.289  43.523  1.00  0.00    -0.504 OA
ATOM     25  H   UNL     1      87.236  57.345  43.205  1.00  0.00     0.293 HD
ENDBRANCH   5  24
BRANCH   7  26
ATOM     26  O   UNL     1      85.600  55.311  47.843  1.00  0.00    -0.504 OA
ATOM     27  H   UNL     1      84.746  55.793  47.926  1.00  0.00     0.293 HD
ENDBRANCH   7  26
BRANCH   6  28
ATOM     28  O   UNL     1      85.653  57.646  46.040  1.00  0.00    -0.490 OA
ATOM     29  C   UNL     1      84.290  58.030  46.154  1.00  0.00     0.278 C 
ENDBRANCH   6  28
TORSDOF 7
ENDMDL
MODEL 6
REMARK VINA RESULT:    -7.328      2.042      3.571
REMARK INTER + INTRA:         -10.037
REMARK INTER:                  -9.484
REMARK INTRA:                  -0.552
REMARK UNBOUND:                -0.352
REMARK SMILES COc1cc(-c2oc3cc(O)c(OC)c(O)c3c(=O)c2OC)ccc1O
REMARK SMILES IDX 6 1 7 2 8 3 9 4 10 5 12 6 15 7 17 8 18 9 19 10 20 11 5 12
REMARK SMILES IDX 3 13 4 14 25 15 24 16 23 17 2 18 1 19 26 20 21 22 22 23
REMARK SMILES IDX 11 24 16 26 13 28 14 29
REMARK H PARENT 26 21 11 25 16 27
ROOT
ATOM      1  C   UNL     1      84.638  49.384  43.496  1.00  0.00     0.180 C 
ATOM      2  O   UNL     1      85.887  48.915  43.129  1.00  0.00    -0.452 OA
ATOM      3  C   UNL     1      86.071  47.567  42.980  1.00  0.00     0.146 A 
ATOM      4  C   UNL     1      87.345  47.151  42.612  1.00  0.00     0.098 A 
ATOM      5  C   UNL     1      87.588  45.794  42.446  1.00  0.00     0.165 A 
ATOM      6  C   UNL     1      86.593  44.822  42.642  1.00  0.00     0.203 A 
ATOM      7  C   UNL     1      85.312  45.253  43.013  1.00  0.00     0.177 A 
ATOM      8  C   UNL     1      85.059  46.632  43.179  1.00  0.00     0.115 A 
ATOM      9  C   UNL     1      83.728  47.133  43.560  1.00  0.00     0.239 C 
ATOM     10  O   UNL     1      82.820  46.330  43.756  1.00  0.00    -0.285 OA
ATOM     11  C   UNL     1      83.553  48.609  43.692  1.00  0.00     0.210 C 
ENDROOT
BRANCH   1  12
ATOM     12  C   UNL     1      84.602  50.858  43.616  1.00  0.00     0.025 A 
ATOM     13  C   UNL     1      84.307  53.036  42.564  1.00  0.00     0.161 A 
ATOM     14  C   UNL     1      84.325  51.641  42.479  1.00  0.00     0.062 A 
ATOM     15  C   UNL     1      84.573  53.640  43.797  1.00  0.00     0.157 A 
ATOM     16  C   UNL     1      84.858  52.888  44.928  1.00  0.00     0.051 A 
ATOM     17  C   UNL     1      84.877  51.497  44.836  1.00  0.00     0.016 A 
BRANCH  13  18
ATOM     18  O   UNL     1      84.048  53.907  41.537  1.00  0.00    -0.493 OA
ATOM     19  C   UNL     1      84.858  53.783  40.374  1.00  0.00     0.278 C 
ENDBRANCH  13  18
BRANCH  15  20
ATOM     20  O   UNL     1      84.561  55.002  43.913  1.00  0.00    -0.504 OA
ATOM     21  H   UNL     1      85.502  55.259  43.965  1.00  0.00     0.293 HD
ENDBRANCH  15  20
ENDBRANCH   1  12
BRANCH  11  22
ATOM     22  O   UNL     1      82.328  49.154  44.047  1.00  0.00    -0.490 OA
ATOM     23  C   UNL     1      81.422  49.311  42.959  1.00  0.00     0.278 C 
ENDBRANCH  11  22
BRANCH   5  24
ATOM     24  O   UNL     1      88.854  45.415  42.080  1.00  0.00    -0.504 OA
ATOM     25  H   UNL     1      88.938  45.684  41.143  1.00  0.00     0.293 HD
ENDBRANCH   5  24
BRANCH   7  26
ATOM     26  O   UNL     1      84.310  44.335  43.206  1.00  0.00    -0.504 OA
ATOM     27  H   UNL     1      84.114  43.888  42.352  1.00  0.00     0.293 HD
ENDBRANCH   7  26
BRANCH   6  28
ATOM     28  O   UNL     1      87.045  43.544  42.428  1.00  0.00    -0.490 OA
ATOM     29  C   UNL     1      87.416  42.762  43.554  1.00  0.00     0.278 C 
ENDBRANCH   6  28
TORSDOF 7
ENDMDL
MODEL 7
REMARK VINA RESULT:    -7.224      1.363      2.265
REMARK INTER + INTRA:          -9.899
REMARK INTER:                  -9.372
REMARK INTRA:                  -0.527
REMARK UNBOUND:                -0.352
REMARK SMILES COc1cc(-c2oc3cc(O)c(OC)c(O)c3c(=O)c2OC)ccc1O
REMARK SMILES IDX 6 1 7 2 8 3 9 4 10 5 12 6 15 7 17 8 18 9 19 10 20 11 5 12
REMARK SMILES IDX 3 13 4 14 25 15 24 16 23 17 2 18 1 19 26 20 21 22 22 23
REMARK SMILES IDX 11 24 16 26 13 28 14 29
REMARK H PARENT 26 21 11 25 16 27
ROOT
ATOM      1  C   UNL     1      86.604  51.489  42.407  1.00  0.00     0.180 C 
ATOM      2  O   UNL     1      85.759  50.624  43.080  1.00  0.00    -0.452 OA
ATOM      3  C   UNL     1      86.064  49.291  43.113  1.00  0.00     0.146 A 
ATOM      4  C   UNL     1      85.180  48.468  43.801  1.00  0.00     0.098 A 
ATOM      5  C   UNL     1      85.440  47.105  43.867  1.00  0.00     0.165 A 
ATOM      6  C   UNL     1      86.564  46.525  43.257  1.00  0.00     0.203 A 
ATOM      7  C   UNL     1      87.448  47.363  42.566  1.00  0.00     0.177 A 
ATOM      8  C   UNL     1      87.190  48.750  42.500  1.00  0.00     0.115 A 
ATOM      9  C   UNL     1      88.093  49.672  41.791  1.00  0.00     0.239 C 
ATOM     10  O   UNL     1      89.088  49.220  41.228  1.00  0.00    -0.285 OA
ATOM     11  C   UNL     1      87.747  51.123  41.793  1.00  0.00     0.210 C 
ENDROOT
BRANCH   1  12
ATOM     12  C   UNL     1      86.138  52.892  42.463  1.00  0.00     0.025 A 
ATOM     13  C   UNL     1      86.170  55.064  43.565  1.00  0.00     0.161 A 
ATOM     14  C   UNL     1      86.613  53.742  43.480  1.00  0.00     0.062 A 
ATOM     15  C   UNL     1      85.244  55.527  42.624  1.00  0.00     0.157 A 
ATOM     16  C   UNL     1      84.756  54.705  41.619  1.00  0.00     0.051 A 
ATOM     17  C   UNL     1      85.200  53.384  41.542  1.00  0.00     0.016 A 
BRANCH  13  18
ATOM     18  O   UNL     1      86.558  55.989  44.500  1.00  0.00    -0.493 OA
ATOM     19  C   UNL     1      86.345  55.647  45.864  1.00  0.00     0.278 C 
ENDBRANCH  13  18
BRANCH  15  20
ATOM     20  O   UNL     1      84.793  56.817  42.680  1.00  0.00    -0.504 OA
ATOM     21  H   UNL     1      84.538  56.955  43.613  1.00  0.00     0.293 HD
ENDBRANCH  15  20
ENDBRANCH   1  12
BRANCH  11  22
ATOM     22  O   UNL     1      88.552  52.050  41.147  1.00  0.00    -0.490 OA
ATOM     23  C   UNL     1      88.285  52.181  39.754  1.00  0.00     0.278 C 
ENDBRANCH  11  22
BRANCH   5  24
ATOM     24  O   UNL     1      84.551  46.322  44.555  1.00  0.00    -0.504 OA
ATOM     25  H   UNL     1      85.095  45.831  45.204  1.00  0.00     0.293 HD
ENDBRANCH   5  24
BRANCH   7  26
ATOM     26  O   UNL     1      88.562  46.835  41.962  1.00  0.00    -0.504 OA
ATOM     27  H   UNL     1      89.284  47.504  41.977  1.00  0.00     0.293 HD
ENDBRANCH   7  26
BRANCH   6  28
ATOM     28  O   UNL     1      86.630  45.167  43.442  1.00  0.00    -0.490 OA
ATOM     29  C   UNL     1      86.206  44.320  42.383  1.00  0.00     0.278 C 
ENDBRANCH   6  28
TORSDOF 7
ENDMDL
MODEL 8
REMARK VINA RESULT:    -7.202      2.553      8.078
REMARK INTER + INTRA:          -9.869
REMARK INTER:                  -9.352
REMARK INTRA:                  -0.517
REMARK UNBOUND:                -0.352
REMARK SMILES COc1cc(-c2oc3cc(O)c(OC)c(O)c3c(=O)c2OC)ccc1O
REMARK SMILES IDX 6 1 7 2 8 3 9 4 10 5 12 6 15 7 17 8 18 9 19 10 20 11 5 12
REMARK SMILES IDX 3 13 4 14 25 15 24 16 23 17 2 18 1 19 26 20 21 22 22 23
REMARK SMILES IDX 11 24 16 26 13 28 14 29
REMARK H PARENT 26 21 11 25 16 27
ROOT
ATOM      1  C   UNL     1      87.350  51.579  43.988  1.00  0.00     0.180 C 
ATOM      2  O   UNL     1      86.918  52.591  43.148  1.00  0.00    -0.452 OA
ATOM      3  C   UNL     1      86.330  53.700  43.693  1.00  0.00     0.146 A 
ATOM      4  C   UNL     1      85.913  54.683  42.804  1.00  0.00     0.098 A 
ATOM      5  C   UNL     1      85.310  55.830  43.302  1.00  0.00     0.165 A 
ATOM      6  C   UNL     1      85.101  56.033  44.677  1.00  0.00     0.203 A 
ATOM      7  C   UNL     1      85.525  55.035  45.564  1.00  0.00     0.177 A 
ATOM      8  C   UNL     1      86.141  53.869  45.062  1.00  0.00     0.115 A 
ATOM      9  C   UNL     1      86.610  52.796  45.956  1.00  0.00     0.239 C 
ATOM     10  O   UNL     1      86.444  52.912  47.168  1.00  0.00    -0.285 OA
ATOM     11  C   UNL     1      87.268  51.611  45.333  1.00  0.00     0.210 C 
ENDROOT
BRANCH   1  12
ATOM     12  C   UNL     1      87.960  50.453  43.248  1.00  0.00     0.025 A 
ATOM     13  C   UNL     1      87.709  48.297  42.144  1.00  0.00     0.161 A 
ATOM     14  C   UNL     1      87.152  49.381  42.825  1.00  0.00     0.062 A 
ATOM     15  C   UNL     1      89.085  48.294  41.892  1.00  0.00     0.157 A 
ATOM     16  C   UNL     1      89.903  49.335  42.307  1.00  0.00     0.051 A 
ATOM     17  C   UNL     1      89.340  50.413  42.990  1.00  0.00     0.016 A 
BRANCH  13  18
ATOM     18  O   UNL     1      87.033  47.198  41.677  1.00  0.00    -0.493 OA
ATOM     19  C   UNL     1      86.502  46.312  42.655  1.00  0.00     0.278 C 
ENDBRANCH  13  18
BRANCH  15  20
ATOM     20  O   UNL     1      89.661  47.247  41.225  1.00  0.00    -0.504 OA
ATOM     21  H   UNL     1      90.614  47.460  41.196  1.00  0.00     0.293 HD
ENDBRANCH  15  20
ENDBRANCH   1  12
BRANCH  11  22
ATOM     22  O   UNL     1      87.735  50.562  46.112  1.00  0.00    -0.490 OA
ATOM     23  C   UNL     1      86.718  49.669  46.555  1.00  0.00     0.278 C 
ENDBRANCH  11  22
BRANCH   5  24
ATOM     24  O   UNL     1      84.913  56.782  42.400  1.00  0.00    -0.504 OA
ATOM     25  H   UNL     1      84.545  57.509  42.943  1.00  0.00     0.293 HD
ENDBRANCH   5  24
BRANCH   7  26
ATOM     26  O   UNL     1      85.344  55.199  46.915  1.00  0.00    -0.504 OA
ATOM     27  H   UNL     1      84.434  55.533  47.079  1.00  0.00     0.293 HD
ENDBRANCH   7  26
BRANCH   6  28
ATOM     28  O   UNL     1      84.489  57.229  44.952  1.00  0.00    -0.490 OA
ATOM     29  C   UNL     1      85.292  58.308  45.411  1.00  0.00     0.278 C 
ENDBRANCH   6  28
TORSDOF 7
ENDMDL
MODEL 9
REMARK VINA RESULT:    -7.100      3.340      8.405
REMARK INTER + INTRA:          -9.734
REMARK INTER:                  -9.382
REMARK INTRA:                  -0.352
REMARK UNBOUND:                -0.352
REMARK SMILES COc1cc(-c2oc3cc(O)c(OC)c(O)c3c(=O)c2OC)ccc1O
REMARK SMILES IDX 6 1 7 2 8 3 9 4 10 5 12 6 15 7 17 8 18 9 19 10 20 11 5 12
REMARK SMILES IDX 3 13 4 14 25 15 24 16 23 17 2 18 1 19 26 20 21 22 22 23
REMARK SMILES IDX 11 24 16 26 13 28 14 29
REMARK H PARENT 26 21 11 25 16 27
ROOT
ATOM      1  C   UNL     1      84.168  51.975  43.543  1.00  0.00     0.180 C 
ATOM      2  O   UNL     1      84.721  52.493  44.701  1.00  0.00    -0.452 OA
ATOM      3  C   UNL     1      84.961  53.838  44.778  1.00  0.00     0.146 A 
ATOM      4  C   UNL     1      85.519  54.303  45.962  1.00  0.00     0.098 A 
ATOM      5  C   UNL     1      85.784  55.659  46.095  1.00  0.00     0.165 A 
ATOM      6  C   UNL     1      85.511  56.582  45.071  1.00  0.00     0.203 A 
ATOM      7  C   UNL     1      84.948  56.102  43.882  1.00  0.00     0.177 A 
ATOM      8  C   UNL     1      84.674  54.724  43.743  1.00  0.00     0.115 A 
ATOM      9  C   UNL     1      84.077  54.174  42.515  1.00  0.00     0.239 C 
ATOM     10  O   UNL     1      83.826  54.931  41.580  1.00  0.00    -0.285 OA
ATOM     11  C   UNL     1      83.805  52.708  42.471  1.00  0.00     0.210 C 
ENDROOT
BRANCH   1  12
ATOM     12  C   UNL     1      83.972  50.511  43.616  1.00  0.00     0.025 A 
ATOM     13  C   UNL     1      82.475  48.613  43.917  1.00  0.00     0.161 A 
ATOM     14  C   UNL     1      82.680  49.992  43.823  1.00  0.00     0.062 A 
ATOM     15  C   UNL     1      83.576  47.758  43.805  1.00  0.00     0.157 A 
ATOM     16  C   UNL     1      84.860  48.247  43.610  1.00  0.00     0.051 A 
ATOM     17  C   UNL     1      85.058  49.625  43.521  1.00  0.00     0.016 A 
BRANCH  13  18
ATOM     18  O   UNL     1      81.271  47.985  44.112  1.00  0.00    -0.493 OA
ATOM     19  C   UNL     1      80.194  48.794  44.568  1.00  0.00     0.278 C 
ENDBRANCH  13  18
BRANCH  15  20
ATOM     20  O   UNL     1      83.407  46.404  43.891  1.00  0.00    -0.504 OA
ATOM     21  H   UNL     1      82.647  46.207  43.309  1.00  0.00     0.293 HD
ENDBRANCH  15  20
ENDBRANCH   1  12
BRANCH  11  22
ATOM     22  O   UNL     1      83.244  52.119  41.347  1.00  0.00    -0.490 OA
ATOM     23  C   UNL     1      81.822  52.191  41.301  1.00  0.00     0.278 C 
ENDBRANCH  11  22
BRANCH   5  24
ATOM     24  O   UNL     1      86.332  56.087  47.276  1.00  0.00    -0.504 OA
ATOM     25  H   UNL     1      85.940  56.971  47.432  1.00  0.00     0.293 HD
ENDBRANCH   5  24
BRANCH   7  26
ATOM     26  O   UNL     1      84.660  56.973  42.860  1.00  0.00    -0.504 OA
ATOM     27  H   UNL     1      83.721  56.854  42.591  1.00  0.00     0.293 HD
ENDBRANCH   7  26
BRANCH   6  28
ATOM     28  O   UNL     1      85.849  57.868  45.408  1.00  0.00    -0.490 OA
ATOM     29  C   UNL     1      84.806  58.779  45.729  1.00  0.00     0.278 C 
ENDBRANCH   6  28
TORSDOF 7
ENDMDL
