MODEL 1
REMARK VINA RESULT:    -7.746      0.000      0.000
REMARK INTER + INTRA:         -10.441
REMARK INTER:                 -10.683
REMARK INTRA:                   0.242
REMARK UNBOUND:                -0.205
REMARK SMILES COc1cc(-c2cc(=O)c3c(O)cc(O)cc3o2)c(OC)c(OC)c1O
REMARK SMILES IDX 6 1 7 2 8 3 9 4 10 5 17 6 18 7 16 8 14 9 13 10 11 11 5 12
REMARK SMILES IDX 3 13 4 14 25 15 22 16 19 17 2 18 1 19 26 20 23 22 24 23
REMARK SMILES IDX 20 24 21 25 12 26 15 28
REMARK H PARENT 26 21 12 27 15 29
ROOT
ATOM      1  C   UNL     1      83.786  46.849  43.366  1.00  0.00     0.142 C 
ATOM      2  C   UNL     1      82.920  46.059  44.017  1.00  0.00     0.100 C 
ATOM      3  C   UNL     1      81.558  46.549  44.263  1.00  0.00     0.197 C 
ATOM      4  O   UNL     1      80.720  45.869  44.846  1.00  0.00    -0.289 OA
ATOM      5  C   UNL     1      81.233  47.895  43.775  1.00  0.00     0.107 A 
ATOM      6  C   UNL     1      82.223  48.610  43.103  1.00  0.00     0.146 A 
ATOM      7  O   UNL     1      83.481  48.111  42.878  1.00  0.00    -0.455 OA
ATOM      8  C   UNL     1      81.951  49.890  42.621  1.00  0.00     0.094 A 
ATOM      9  C   UNL     1      80.689  50.443  42.817  1.00  0.00     0.123 A 
ATOM     10  C   UNL     1      79.692  49.739  43.488  1.00  0.00     0.093 A 
ATOM     11  C   UNL     1      79.968  48.460  43.966  1.00  0.00     0.134 A 
ENDROOT
BRANCH   1  12
ATOM     12  C   UNL     1      85.166  46.410  43.074  1.00  0.00     0.067 A 
ATOM     13  C   UNL     1      86.678  44.558  42.589  1.00  0.00     0.165 A 
ATOM     14  C   UNL     1      85.398  45.034  42.874  1.00  0.00     0.066 A 
ATOM     15  C   UNL     1      87.741  45.467  42.517  1.00  0.00     0.204 A 
ATOM     16  C   UNL     1      87.538  46.832  42.719  1.00  0.00     0.207 A 
ATOM     17  C   UNL     1      86.243  47.313  42.957  1.00  0.00     0.175 A 
BRANCH  13  18
ATOM     18  O   UNL     1      87.022  43.248  42.370  1.00  0.00    -0.493 OA
ATOM     19  C   UNL     1      87.406  42.486  43.511  1.00  0.00     0.278 C 
ENDBRANCH  13  18
BRANCH  15  20
ATOM     20  O   UNL     1      89.001  44.995  42.244  1.00  0.00    -0.502 OA
ATOM     21  H   UNL     1      89.158  44.285  42.894  1.00  0.00     0.293 HD
ENDBRANCH  15  20
BRANCH  16  22
ATOM     22  O   UNL     1      88.591  47.708  42.634  1.00  0.00    -0.490 OA
ATOM     23  C   UNL     1      88.664  48.258  41.317  1.00  0.00     0.278 C 
ENDBRANCH  16  22
BRANCH  17  24
ATOM     24  O   UNL     1      85.986  48.651  43.146  1.00  0.00    -0.492 OA
ATOM     25  C   UNL     1      86.324  49.091  44.463  1.00  0.00     0.278 C 
ENDBRANCH  17  24
ENDBRANCH   1  12
BRANCH  11  26
ATOM     26  O   UNL     1      78.952  47.812  44.615  1.00  0.00    -0.507 OA
ATOM     27  H   UNL     1      79.101  46.843  44.528  1.00  0.00     0.293 HD
ENDBRANCH  11  26
BRANCH   9  28
ATOM     28  O   UNL     1      80.465  51.698  42.330  1.00  0.00    -0.508 OA
ATOM     29  H   UNL     1      80.842  52.346  42.949  1.00  0.00     0.293 HD
ENDBRANCH   9  28
TORSDOF 7
ENDMDL
MODEL 2
REMARK VINA RESULT:    -7.742      4.392      7.378
REMARK INTER + INTRA:         -10.436
REMARK INTER:                  -9.996
REMARK INTRA:                  -0.440
REMARK UNBOUND:                -0.205
REMARK SMILES COc1cc(-c2cc(=O)c3c(O)cc(O)cc3o2)c(OC)c(OC)c1O
REMARK SMILES IDX 6 1 7 2 8 3 9 4 10 5 17 6 18 7 16 8 14 9 13 10 11 11 5 12
REMARK SMILES IDX 3 13 4 14 25 15 22 16 19 17 2 18 1 19 26 20 23 22 24 23
REMARK SMILES IDX 20 24 21 25 12 26 15 28
REMARK H PARENT 26 21 12 27 15 29
ROOT
ATOM      1  C   UNL     1      84.336  51.530  43.485  1.00  0.00     0.142 C 
ATOM      2  C   UNL     1      85.339  50.640  43.505  1.00  0.00     0.100 C 
ATOM      3  C   UNL     1      85.017  49.207  43.546  1.00  0.00     0.197 C 
ATOM      4  O   UNL     1      85.892  48.347  43.559  1.00  0.00    -0.289 OA
ATOM      5  C   UNL     1      83.596  48.842  43.566  1.00  0.00     0.107 A 
ATOM      6  C   UNL     1      82.650  49.865  43.530  1.00  0.00     0.146 A 
ATOM      7  O   UNL     1      82.991  51.193  43.477  1.00  0.00    -0.455 OA
ATOM      8  C   UNL     1      81.290  49.558  43.544  1.00  0.00     0.094 A 
ATOM      9  C   UNL     1      80.889  48.225  43.594  1.00  0.00     0.123 A 
ATOM     10  C   UNL     1      81.824  47.194  43.630  1.00  0.00     0.093 A 
ATOM     11  C   UNL     1      83.181  47.507  43.615  1.00  0.00     0.134 A 
ENDROOT
BRANCH   1  12
ATOM     12  C   UNL     1      84.591  52.984  43.429  1.00  0.00     0.067 A 
ATOM     13  C   UNL     1      84.822  54.981  42.049  1.00  0.00     0.165 A 
ATOM     14  C   UNL     1      84.593  53.610  42.167  1.00  0.00     0.066 A 
ATOM     15  C   UNL     1      85.066  55.732  43.205  1.00  0.00     0.204 A 
ATOM     16  C   UNL     1      85.078  55.133  44.465  1.00  0.00     0.207 A 
ATOM     17  C   UNL     1      84.799  53.764  44.585  1.00  0.00     0.175 A 
BRANCH  13  18
ATOM     18  O   UNL     1      84.841  55.699  40.879  1.00  0.00    -0.493 OA
ATOM     19  C   UNL     1      84.109  55.160  39.783  1.00  0.00     0.278 C 
ENDBRANCH  13  18
BRANCH  15  20
ATOM     20  O   UNL     1      85.300  57.080  43.085  1.00  0.00    -0.502 OA
ATOM     21  H   UNL     1      84.469  57.457  42.739  1.00  0.00     0.293 HD
ENDBRANCH  15  20
BRANCH  16  22
ATOM     22  O   UNL     1      85.309  55.888  45.587  1.00  0.00    -0.490 OA
ATOM     23  C   UNL     1      84.072  56.371  46.115  1.00  0.00     0.278 C 
ENDBRANCH  16  22
BRANCH  17  24
ATOM     24  O   UNL     1      84.781  53.129  45.805  1.00  0.00    -0.492 OA
ATOM     25  C   UNL     1      86.094  52.895  46.317  1.00  0.00     0.278 C 
ENDBRANCH  17  24
ENDBRANCH   1  12
BRANCH  11  26
ATOM     26  O   UNL     1      84.056  46.456  43.650  1.00  0.00    -0.507 OA
ATOM     27  H   UNL     1      84.577  46.461  42.814  1.00  0.00     0.293 HD
ENDBRANCH  11  26
BRANCH   9  28
ATOM     28  O   UNL     1      79.549  47.968  43.605  1.00  0.00    -0.508 OA
ATOM     29  H   UNL     1      79.279  47.676  42.718  1.00  0.00     0.293 HD
ENDBRANCH   9  28
TORSDOF 7
ENDMDL
MODEL 3
REMARK VINA RESULT:    -7.665      3.978      6.997
REMARK INTER + INTRA:         -10.335
REMARK INTER:                  -9.884
REMARK INTRA:                  -0.450
REMARK UNBOUND:                -0.205
REMARK SMILES COc1cc(-c2cc(=O)c3c(O)cc(O)cc3o2)c(OC)c(OC)c1O
REMARK SMILES IDX 6 1 7 2 8 3 9 4 10 5 17 6 18 7 16 8 14 9 13 10 11 11 5 12
REMARK SMILES IDX 3 13 4 14 25 15 22 16 19 17 2 18 1 19 26 20 23 22 24 23
REMARK SMILES IDX 20 24 21 25 12 26 15 28
REMARK H PARENT 26 21 12 27 15 29
ROOT
ATOM      1  C   UNL     1      83.813  50.755  43.259  1.00  0.00     0.142 C 
ATOM      2  C   UNL     1      82.501  50.497  43.154  1.00  0.00     0.100 C 
ATOM      3  C   UNL     1      82.038  49.107  43.264  1.00  0.00     0.197 C 
ATOM      4  O   UNL     1      80.851  48.812  43.183  1.00  0.00    -0.289 OA
ATOM      5  C   UNL     1      83.061  48.078  43.482  1.00  0.00     0.107 A 
ATOM      6  C   UNL     1      84.392  48.481  43.584  1.00  0.00     0.146 A 
ATOM      7  O   UNL     1      84.783  49.792  43.492  1.00  0.00    -0.455 OA
ATOM      8  C   UNL     1      85.392  47.532  43.795  1.00  0.00     0.094 A 
ATOM      9  C   UNL     1      85.050  46.186  43.901  1.00  0.00     0.123 A 
ATOM     10  C   UNL     1      83.725  45.772  43.800  1.00  0.00     0.093 A 
ATOM     11  C   UNL     1      82.730  46.724  43.591  1.00  0.00     0.134 A 
ENDROOT
BRANCH   1  12
ATOM     12  C   UNL     1      84.341  52.132  43.172  1.00  0.00     0.067 A 
ATOM     13  C   UNL     1      84.992  54.000  41.745  1.00  0.00     0.165 A 
ATOM     14  C   UNL     1      84.503  52.702  41.893  1.00  0.00     0.066 A 
ATOM     15  C   UNL     1      85.336  54.731  42.888  1.00  0.00     0.204 A 
ATOM     16  C   UNL     1      85.193  54.185  44.165  1.00  0.00     0.207 A 
ATOM     17  C   UNL     1      84.655  52.899  44.312  1.00  0.00     0.175 A 
BRANCH  13  18
ATOM     18  O   UNL     1      85.185  54.660  40.558  1.00  0.00    -0.493 OA
ATOM     19  C   UNL     1      84.019  54.989  39.809  1.00  0.00     0.278 C 
ENDBRANCH  13  18
BRANCH  15  20
ATOM     20  O   UNL     1      85.825  56.006  42.740  1.00  0.00    -0.502 OA
ATOM     21  H   UNL     1      85.312  56.396  42.007  1.00  0.00     0.293 HD
ENDBRANCH  15  20
BRANCH  16  22
ATOM     22  O   UNL     1      85.526  54.922  45.273  1.00  0.00    -0.490 OA
ATOM     23  C   UNL     1      84.407  55.705  45.695  1.00  0.00     0.278 C 
ENDBRANCH  16  22
BRANCH  17  24
ATOM     24  O   UNL     1      84.477  52.322  45.548  1.00  0.00    -0.492 OA
ATOM     25  C   UNL     1      85.704  51.860  46.116  1.00  0.00     0.278 C 
ENDBRANCH  17  24
ENDBRANCH   1  12
BRANCH  11  26
ATOM     26  O   UNL     1      81.444  46.262  43.502  1.00  0.00    -0.507 OA
ATOM     27  H   UNL     1      81.201  46.211  42.549  1.00  0.00     0.293 HD
ENDBRANCH  11  26
BRANCH   9  28
ATOM     28  O   UNL     1      86.059  45.292  44.107  1.00  0.00    -0.508 OA
ATOM     29  H   UNL     1      86.782  45.738  44.580  1.00  0.00     0.293 HD
ENDBRANCH   9  28
TORSDOF 7
ENDMDL
MODEL 4
REMARK VINA RESULT:    -7.650      4.027      6.806
REMARK INTER + INTRA:         -10.314
REMARK INTER:                  -9.930
REMARK INTRA:                  -0.384
REMARK UNBOUND:                -0.205
REMARK SMILES COc1cc(-c2cc(=O)c3c(O)cc(O)cc3o2)c(OC)c(OC)c1O
REMARK SMILES IDX 6 1 7 2 8 3 9 4 10 5 17 6 18 7 16 8 14 9 13 10 11 11 5 12
REMARK SMILES IDX 3 13 4 14 25 15 22 16 19 17 2 18 1 19 26 20 23 22 24 23
REMARK SMILES IDX 20 24 21 25 12 26 15 28
REMARK H PARENT 26 21 12 27 15 29
ROOT
ATOM      1  C   UNL     1      84.239  50.589  43.936  1.00  0.00     0.142 C 
ATOM      2  C   UNL     1      85.193  49.667  43.743  1.00  0.00     0.100 C 
ATOM      3  C   UNL     1      84.799  48.261  43.578  1.00  0.00     0.197 C 
ATOM      4  O   UNL     1      85.626  47.375  43.392  1.00  0.00    -0.289 OA
ATOM      5  C   UNL     1      83.365  47.957  43.641  1.00  0.00     0.107 A 
ATOM      6  C   UNL     1      82.474  49.012  43.836  1.00  0.00     0.146 A 
ATOM      7  O   UNL     1      82.880  50.315  43.970  1.00  0.00    -0.455 OA
ATOM      8  C   UNL     1      81.103  48.763  43.897  1.00  0.00     0.094 A 
ATOM      9  C   UNL     1      80.636  47.458  43.762  1.00  0.00     0.123 A 
ATOM     10  C   UNL     1      81.516  46.396  43.568  1.00  0.00     0.093 A 
ATOM     11  C   UNL     1      82.884  46.651  43.506  1.00  0.00     0.134 A 
ENDROOT
BRANCH   1  12
ATOM     12  C   UNL     1      84.566  52.021  44.094  1.00  0.00     0.067 A 
ATOM     13  C   UNL     1      84.843  53.914  45.608  1.00  0.00     0.165 A 
ATOM     14  C   UNL     1      84.537  52.570  45.393  1.00  0.00     0.066 A 
ATOM     15  C   UNL     1      85.167  54.722  44.512  1.00  0.00     0.204 A 
ATOM     16  C   UNL     1      85.195  54.203  43.216  1.00  0.00     0.207 A 
ATOM     17  C   UNL     1      84.935  52.841  43.009  1.00  0.00     0.175 A 
BRANCH  13  18
ATOM     18  O   UNL     1      84.853  54.556  46.821  1.00  0.00    -0.493 OA
ATOM     19  C   UNL     1      83.629  54.571  47.550  1.00  0.00     0.278 C 
ENDBRANCH  13  18
BRANCH  15  20
ATOM     20  O   UNL     1      85.460  56.046  44.725  1.00  0.00    -0.502 OA
ATOM     21  H   UNL     1      85.663  56.412  43.843  1.00  0.00     0.293 HD
ENDBRANCH  15  20
BRANCH  16  22
ATOM     22  O   UNL     1      85.526  55.009  42.156  1.00  0.00    -0.490 OA
ATOM     23  C   UNL     1      84.342  55.531  41.550  1.00  0.00     0.278 C 
ENDBRANCH  16  22
BRANCH  17  24
ATOM     24  O   UNL     1      84.967  52.277  41.755  1.00  0.00    -0.492 OA
ATOM     25  C   UNL     1      86.300  52.065  41.286  1.00  0.00     0.278 C 
ENDBRANCH  17  24
ENDBRANCH   1  12
BRANCH  11  26
ATOM     26  O   UNL     1      83.704  45.572  43.311  1.00  0.00    -0.507 OA
ATOM     27  H   UNL     1      83.140  44.792  43.102  1.00  0.00     0.293 HD
ENDBRANCH  11  26
BRANCH   9  28
ATOM     28  O   UNL     1      79.289  47.259  43.828  1.00  0.00    -0.508 OA
ATOM     29  H   UNL     1      79.117  46.440  44.325  1.00  0.00     0.293 HD
ENDBRANCH   9  28
TORSDOF 7
ENDMDL
MODEL 5
REMARK VINA RESULT:    -7.621      3.718      6.742
REMARK INTER + INTRA:         -10.276
REMARK INTER:                  -9.878
REMARK INTRA:                  -0.398
REMARK UNBOUND:                -0.205
REMARK SMILES COc1cc(-c2cc(=O)c3c(O)cc(O)cc3o2)c(OC)c(OC)c1O
REMARK SMILES IDX 6 1 7 2 8 3 9 4 10 5 17 6 18 7 16 8 14 9 13 10 11 11 5 12
REMARK SMILES IDX 3 13 4 14 25 15 22 16 19 17 2 18 1 19 26 20 23 22 24 23
REMARK SMILES IDX 20 24 21 25 12 26 15 28
REMARK H PARENT 26 21 12 27 15 29
ROOT
ATOM      1  C   UNL     1      83.386  51.337  43.105  1.00  0.00     0.142 C 
ATOM      2  C   UNL     1      83.259  51.918  41.903  1.00  0.00     0.100 C 
ATOM      3  C   UNL     1      83.780  53.278  41.713  1.00  0.00     0.197 C 
ATOM      4  O   UNL     1      83.699  53.858  40.635  1.00  0.00    -0.289 OA
ATOM      5  C   UNL     1      84.411  53.920  42.872  1.00  0.00     0.107 A 
ATOM      6  C   UNL     1      84.490  53.201  44.064  1.00  0.00     0.146 A 
ATOM      7  O   UNL     1      84.004  51.925  44.198  1.00  0.00    -0.455 OA
ATOM      8  C   UNL     1      85.086  53.776  45.186  1.00  0.00     0.094 A 
ATOM      9  C   UNL     1      85.599  55.068  45.104  1.00  0.00     0.123 A 
ATOM     10  C   UNL     1      85.526  55.796  43.920  1.00  0.00     0.093 A 
ATOM     11  C   UNL     1      84.931  55.217  42.802  1.00  0.00     0.134 A 
ENDROOT
BRANCH   1  12
ATOM     12  C   UNL     1      82.897  49.966  43.358  1.00  0.00     0.067 A 
ATOM     13  C   UNL     1      80.981  48.495  43.699  1.00  0.00     0.165 A 
ATOM     14  C   UNL     1      81.505  49.767  43.467  1.00  0.00     0.066 A 
ATOM     15  C   UNL     1      81.858  47.413  43.838  1.00  0.00     0.204 A 
ATOM     16  C   UNL     1      83.239  47.586  43.742  1.00  0.00     0.207 A 
ATOM     17  C   UNL     1      83.761  48.857  43.460  1.00  0.00     0.175 A 
BRANCH  13  18
ATOM     18  O   UNL     1      79.651  48.179  43.818  1.00  0.00    -0.493 OA
ATOM     19  C   UNL     1      78.848  49.064  44.593  1.00  0.00     0.278 C 
ENDBRANCH  13  18
BRANCH  15  20
ATOM     20  O   UNL     1      81.340  46.163  44.075  1.00  0.00    -0.502 OA
ATOM     21  H   UNL     1      81.999  45.538  43.719  1.00  0.00     0.293 HD
ENDBRANCH  15  20
BRANCH  16  22
ATOM     22  O   UNL     1      84.082  46.511  43.871  1.00  0.00    -0.490 OA
ATOM     23  C   UNL     1      84.339  45.936  42.589  1.00  0.00     0.278 C 
ENDBRANCH  16  22
BRANCH  17  24
ATOM     24  O   UNL     1      85.113  49.078  43.338  1.00  0.00    -0.492 OA
ATOM     25  C   UNL     1      85.782  49.072  44.601  1.00  0.00     0.278 C 
ENDBRANCH  17  24
ENDBRANCH   1  12
BRANCH  11  26
ATOM     26  O   UNL     1      84.889  55.976  41.663  1.00  0.00    -0.507 OA
ATOM     27  H   UNL     1      85.367  56.818  41.837  1.00  0.00     0.293 HD
ENDBRANCH  11  26
BRANCH   9  28
ATOM     28  O   UNL     1      86.173  55.592  46.225  1.00  0.00    -0.508 OA
ATOM     29  H   UNL     1      87.058  55.203  46.334  1.00  0.00     0.293 HD
ENDBRANCH   9  28
TORSDOF 7
ENDMDL
MODEL 6
REMARK VINA RESULT:    -7.585      4.416      6.823
REMARK INTER + INTRA:         -10.229
REMARK INTER:                  -9.837
REMARK INTRA:                  -0.392
REMARK UNBOUND:                -0.205
REMARK SMILES COc1cc(-c2cc(=O)c3c(O)cc(O)cc3o2)c(OC)c(OC)c1O
REMARK SMILES IDX 6 1 7 2 8 3 9 4 10 5 17 6 18 7 16 8 14 9 13 10 11 11 5 12
REMARK SMILES IDX 3 13 4 14 25 15 22 16 19 17 2 18 1 19 26 20 23 22 24 23
REMARK SMILES IDX 20 24 21 25 12 26 15 28
REMARK H PARENT 26 21 12 27 15 29
ROOT
ATOM      1  C   UNL     1      84.702  51.805  44.132  1.00  0.00     0.142 C 
ATOM      2  C   UNL     1      85.441  52.490  43.246  1.00  0.00     0.100 C 
ATOM      3  C   UNL     1      85.840  53.866  43.568  1.00  0.00     0.197 C 
ATOM      4  O   UNL     1      86.521  54.538  42.801  1.00  0.00    -0.289 OA
ATOM      5  C   UNL     1      85.392  54.408  44.856  1.00  0.00     0.107 A 
ATOM      6  C   UNL     1      84.637  53.587  45.692  1.00  0.00     0.146 A 
ATOM      7  O   UNL     1      84.297  52.299  45.362  1.00  0.00    -0.455 OA
ATOM      8  C   UNL     1      84.197  54.065  46.925  1.00  0.00     0.094 A 
ATOM      9  C   UNL     1      84.517  55.364  47.312  1.00  0.00     0.123 A 
ATOM     10  C   UNL     1      85.270  56.194  46.486  1.00  0.00     0.093 A 
ATOM     11  C   UNL     1      85.709  55.711  45.255  1.00  0.00     0.134 A 
ENDROOT
BRANCH   1  12
ATOM     12  C   UNL     1      84.280  50.413  43.876  1.00  0.00     0.067 A 
ATOM     13  C   UNL     1      82.484  48.891  43.236  1.00  0.00     0.165 A 
ATOM     14  C   UNL     1      82.942  50.183  43.497  1.00  0.00     0.066 A 
ATOM     15  C   UNL     1      83.370  47.816  43.369  1.00  0.00     0.204 A 
ATOM     16  C   UNL     1      84.697  48.017  43.750  1.00  0.00     0.207 A 
ATOM     17  C   UNL     1      85.167  49.321  43.965  1.00  0.00     0.175 A 
BRANCH  13  18
ATOM     18  O   UNL     1      81.211  48.546  42.855  1.00  0.00    -0.493 OA
ATOM     19  C   UNL     1      80.169  49.451  43.208  1.00  0.00     0.278 C 
ENDBRANCH  13  18
BRANCH  15  20
ATOM     20  O   UNL     1      82.916  46.544  43.119  1.00  0.00    -0.502 OA
ATOM     21  H   UNL     1      82.714  46.164  43.995  1.00  0.00     0.293 HD
ENDBRANCH  15  20
BRANCH  16  22
ATOM     22  O   UNL     1      85.553  46.951  43.865  1.00  0.00    -0.490 OA
ATOM     23  C   UNL     1      86.227  46.729  42.625  1.00  0.00     0.278 C 
ENDBRANCH  16  22
BRANCH  17  24
ATOM     24  O   UNL     1      86.470  49.575  44.325  1.00  0.00    -0.492 OA
ATOM     25  C   UNL     1      86.658  49.550  45.742  1.00  0.00     0.278 C 
ENDBRANCH  17  24
ENDBRANCH   1  12
BRANCH  11  26
ATOM     26  O   UNL     1      86.447  56.568  44.484  1.00  0.00    -0.507 OA
ATOM     27  H   UNL     1      86.869  56.046  43.763  1.00  0.00     0.293 HD
ENDBRANCH  11  26
BRANCH   9  28
ATOM     28  O   UNL     1      84.067  55.792  48.526  1.00  0.00    -0.508 OA
ATOM     29  H   UNL     1      84.333  56.719  48.649  1.00  0.00     0.293 HD
ENDBRANCH   9  28
TORSDOF 7
ENDMDL
MODEL 7
REMARK VINA RESULT:    -7.572      5.257      9.665
REMARK INTER + INTRA:         -10.212
REMARK INTER:                 -10.007
REMARK INTRA:                  -0.205
REMARK UNBOUND:                -0.205
REMARK SMILES COc1cc(-c2cc(=O)c3c(O)cc(O)cc3o2)c(OC)c(OC)c1O
REMARK SMILES IDX 6 1 7 2 8 3 9 4 10 5 17 6 18 7 16 8 14 9 13 10 11 11 5 12
REMARK SMILES IDX 3 13 4 14 25 15 22 16 19 17 2 18 1 19 26 20 23 22 24 23
REMARK SMILES IDX 20 24 21 25 12 26 15 28
REMARK H PARENT 26 21 12 27 15 29
ROOT
ATOM      1  C   UNL     1      86.692  53.183  43.767  1.00  0.00     0.142 C 
ATOM      2  C   UNL     1      86.610  53.627  42.504  1.00  0.00     0.100 C 
ATOM      3  C   UNL     1      87.316  52.894  41.445  1.00  0.00     0.197 C 
ATOM      4  O   UNL     1      87.271  53.248  40.272  1.00  0.00    -0.289 OA
ATOM      5  C   UNL     1      88.078  51.707  41.849  1.00  0.00     0.107 A 
ATOM      6  C   UNL     1      88.073  51.345  43.195  1.00  0.00     0.146 A 
ATOM      7  O   UNL     1      87.388  52.048  44.154  1.00  0.00    -0.455 OA
ATOM      8  C   UNL     1      88.783  50.221  43.617  1.00  0.00     0.094 A 
ATOM      9  C   UNL     1      89.493  49.468  42.685  1.00  0.00     0.123 A 
ATOM     10  C   UNL     1      89.506  49.820  41.337  1.00  0.00     0.093 A 
ATOM     11  C   UNL     1      88.794  50.942  40.922  1.00  0.00     0.134 A 
ENDROOT
BRANCH   1  12
ATOM     12  C   UNL     1      85.994  53.866  44.875  1.00  0.00     0.067 A 
ATOM     13  C   UNL     1      85.569  55.954  46.063  1.00  0.00     0.165 A 
ATOM     14  C   UNL     1      86.204  55.251  45.039  1.00  0.00     0.066 A 
ATOM     15  C   UNL     1      84.726  55.263  46.942  1.00  0.00     0.204 A 
ATOM     16  C   UNL     1      84.510  53.891  46.805  1.00  0.00     0.207 A 
ATOM     17  C   UNL     1      85.111  53.196  45.745  1.00  0.00     0.175 A 
BRANCH  13  18
ATOM     18  O   UNL     1      85.690  57.297  46.317  1.00  0.00    -0.493 OA
ATOM     19  C   UNL     1      85.264  58.185  45.288  1.00  0.00     0.278 C 
ENDBRANCH  13  18
BRANCH  15  20
ATOM     20  O   UNL     1      84.109  55.955  47.954  1.00  0.00    -0.502 OA
ATOM     21  H   UNL     1      84.540  56.830  47.970  1.00  0.00     0.293 HD
ENDBRANCH  15  20
BRANCH  16  22
ATOM     22  O   UNL     1      83.672  53.234  47.670  1.00  0.00    -0.490 OA
ATOM     23  C   UNL     1      84.395  52.817  48.830  1.00  0.00     0.278 C 
ENDBRANCH  16  22
BRANCH  17  24
ATOM     24  O   UNL     1      84.916  51.848  45.556  1.00  0.00    -0.492 OA
ATOM     25  C   UNL     1      83.919  51.575  44.569  1.00  0.00     0.278 C 
ENDBRANCH  17  24
ENDBRANCH   1  12
BRANCH  11  26
ATOM     26  O   UNL     1      88.839  51.241  39.587  1.00  0.00    -0.507 OA
ATOM     27  H   UNL     1      89.000  52.208  39.493  1.00  0.00     0.293 HD
ENDBRANCH  11  26
BRANCH   9  28
ATOM     28  O   UNL     1      90.173  48.377  43.139  1.00  0.00    -0.508 OA
ATOM     29  H   UNL     1      89.546  47.642  43.253  1.00  0.00     0.293 HD
ENDBRANCH   9  28
TORSDOF 7
ENDMDL
MODEL 8
REMARK VINA RESULT:    -7.479      4.189      7.163
REMARK INTER + INTRA:         -10.088
REMARK INTER:                  -9.559
REMARK INTRA:                  -0.529
REMARK UNBOUND:                -0.205
REMARK SMILES COc1cc(-c2cc(=O)c3c(O)cc(O)cc3o2)c(OC)c(OC)c1O
REMARK SMILES IDX 6 1 7 2 8 3 9 4 10 5 17 6 18 7 16 8 14 9 13 10 11 11 5 12
REMARK SMILES IDX 3 13 4 14 25 15 22 16 19 17 2 18 1 19 26 20 23 22 24 23
REMARK SMILES IDX 20 24 21 25 12 26 15 28
REMARK H PARENT 26 21 12 27 15 29
ROOT
ATOM      1  C   UNL     1      83.928  50.845  43.971  1.00  0.00     0.142 C 
ATOM      2  C   UNL     1      82.642  50.568  43.714  1.00  0.00     0.100 C 
ATOM      3  C   UNL     1      82.243  49.169  43.514  1.00  0.00     0.197 C 
ATOM      4  O   UNL     1      81.080  48.854  43.283  1.00  0.00    -0.289 OA
ATOM      5  C   UNL     1      83.298  48.153  43.607  1.00  0.00     0.107 A 
ATOM      6  C   UNL     1      84.596  48.574  43.892  1.00  0.00     0.146 A 
ATOM      7  O   UNL     1      84.927  49.891  44.088  1.00  0.00    -0.455 OA
ATOM      8  C   UNL     1      85.625  47.638  43.993  1.00  0.00     0.094 A 
ATOM      9  C   UNL     1      85.344  46.287  43.807  1.00  0.00     0.123 A 
ATOM     10  C   UNL     1      84.052  45.854  43.522  1.00  0.00     0.093 A 
ATOM     11  C   UNL     1      83.027  46.793  43.424  1.00  0.00     0.134 A 
ENDROOT
BRANCH   1  12
ATOM     12  C   UNL     1      84.392  52.230  44.196  1.00  0.00     0.067 A 
ATOM     13  C   UNL     1      84.915  53.990  45.803  1.00  0.00     0.165 A 
ATOM     14  C   UNL     1      84.479  52.694  45.525  1.00  0.00     0.066 A 
ATOM     15  C   UNL     1      85.256  54.835  44.740  1.00  0.00     0.204 A 
ATOM     16  C   UNL     1      85.170  54.401  43.417  1.00  0.00     0.207 A 
ATOM     17  C   UNL     1      84.778  53.083  43.143  1.00  0.00     0.175 A 
BRANCH  13  18
ATOM     18  O   UNL     1      85.046  54.548  47.050  1.00  0.00    -0.493 OA
ATOM     19  C   UNL     1      83.841  54.849  47.747  1.00  0.00     0.278 C 
ENDBRANCH  13  18
BRANCH  15  20
ATOM     20  O   UNL     1      85.677  56.113  45.016  1.00  0.00    -0.502 OA
ATOM     21  H   UNL     1      85.196  56.685  44.390  1.00  0.00     0.293 HD
ENDBRANCH  15  20
BRANCH  16  22
ATOM     22  O   UNL     1      85.519  55.242  42.390  1.00  0.00    -0.490 OA
ATOM     23  C   UNL     1      84.368  55.950  41.926  1.00  0.00     0.278 C 
ENDBRANCH  16  22
BRANCH  17  24
ATOM     24  O   UNL     1      84.695  52.601  41.858  1.00  0.00    -0.492 OA
ATOM     25  C   UNL     1      85.955  52.142  41.365  1.00  0.00     0.278 C 
ENDBRANCH  17  24
ENDBRANCH   1  12
BRANCH  11  26
ATOM     26  O   UNL     1      81.776  46.314  43.145  1.00  0.00    -0.507 OA
ATOM     27  H   UNL     1      81.175  47.082  43.011  1.00  0.00     0.293 HD
ENDBRANCH  11  26
BRANCH   9  28
ATOM     28  O   UNL     1      86.379  45.405  43.915  1.00  0.00    -0.508 OA
ATOM     29  H   UNL     1      86.413  45.072  44.828  1.00  0.00     0.293 HD
ENDBRANCH   9  28
TORSDOF 7
ENDMDL
MODEL 9
REMARK VINA RESULT:    -7.402      4.133      6.329
REMARK INTER + INTRA:          -9.987
REMARK INTER:                  -9.714
REMARK INTRA:                  -0.273
REMARK UNBOUND:                -0.205
REMARK SMILES COc1cc(-c2cc(=O)c3c(O)cc(O)cc3o2)c(OC)c(OC)c1O
REMARK SMILES IDX 6 1 7 2 8 3 9 4 10 5 17 6 18 7 16 8 14 9 13 10 11 11 5 12
REMARK SMILES IDX 3 13 4 14 25 15 22 16 19 17 2 18 1 19 26 20 23 22 24 23
REMARK SMILES IDX 20 24 21 25 12 26 15 28
REMARK H PARENT 26 21 12 27 15 29
ROOT
ATOM      1  C   UNL     1      86.048  51.469  43.066  1.00  0.00     0.142 C 
ATOM      2  C   UNL     1      85.721  52.208  41.997  1.00  0.00     0.100 C 
ATOM      3  C   UNL     1      85.568  53.660  42.157  1.00  0.00     0.197 C 
ATOM      4  O   UNL     1      85.277  54.389  41.214  1.00  0.00    -0.289 OA
ATOM      5  C   UNL     1      85.783  54.211  43.500  1.00  0.00     0.107 A 
ATOM      6  C   UNL     1      86.130  53.333  44.526  1.00  0.00     0.146 A 
ATOM      7  O   UNL     1      86.279  51.983  44.333  1.00  0.00    -0.455 OA
ATOM      8  C   UNL     1      86.346  53.819  45.815  1.00  0.00     0.094 A 
ATOM      9  C   UNL     1      86.213  55.182  46.066  1.00  0.00     0.123 A 
ATOM     10  C   UNL     1      85.866  56.069  45.050  1.00  0.00     0.093 A 
ATOM     11  C   UNL     1      85.652  55.578  43.764  1.00  0.00     0.134 A 
ENDROOT
BRANCH   1  12
ATOM     12  C   UNL     1      86.231  50.006  42.970  1.00  0.00     0.067 A 
ATOM     13  C   UNL     1      87.473  48.147  41.993  1.00  0.00     0.165 A 
ATOM     14  C   UNL     1      87.246  49.518  42.122  1.00  0.00     0.066 A 
ATOM     15  C   UNL     1      86.666  47.254  42.708  1.00  0.00     0.204 A 
ATOM     16  C   UNL     1      85.650  47.713  43.546  1.00  0.00     0.207 A 
ATOM     17  C   UNL     1      85.456  49.092  43.712  1.00  0.00     0.175 A 
BRANCH  13  18
ATOM     18  O   UNL     1      88.431  47.558  41.207  1.00  0.00    -0.493 OA
ATOM     19  C   UNL     1      89.789  47.796  41.564  1.00  0.00     0.278 C 
ENDBRANCH  13  18
BRANCH  15  20
ATOM     20  O   UNL     1      86.886  45.906  42.572  1.00  0.00    -0.502 OA
ATOM     21  H   UNL     1      86.003  45.493  42.622  1.00  0.00     0.293 HD
ENDBRANCH  15  20
BRANCH  16  22
ATOM     22  O   UNL     1      84.877  46.821  44.247  1.00  0.00    -0.490 OA
ATOM     23  C   UNL     1      83.802  46.357  43.428  1.00  0.00     0.278 C 
ENDBRANCH  16  22
BRANCH  17  24
ATOM     24  O   UNL     1      84.480  49.595  44.540  1.00  0.00    -0.492 OA
ATOM     25  C   UNL     1      83.252  49.837  43.851  1.00  0.00     0.278 C 
ENDBRANCH  17  24
ENDBRANCH   1  12
BRANCH  11  26
ATOM     26  O   UNL     1      85.316  56.493  42.803  1.00  0.00    -0.507 OA
ATOM     27  H   UNL     1      84.335  56.558  42.770  1.00  0.00     0.293 HD
ENDBRANCH  11  26
BRANCH   9  28
ATOM     28  O   UNL     1      86.433  55.615  47.340  1.00  0.00    -0.508 OA
ATOM     29  H   UNL     1      85.897  55.080  47.950  1.00  0.00     0.293 HD
ENDBRANCH   9  28
TORSDOF 7
ENDMDL
