MODEL 1
REMARK VINA RESULT:    -9.390      0.000      0.000
REMARK INTER + INTRA:         -14.392
REMARK INTER:                 -13.249
REMARK INTRA:                  -1.143
REMARK UNBOUND:                -1.159
REMARK SMILES C=C(C)/C=C/c1cc([C@@H]2CC(=O)c3c(O)cc(O)cc3O2)cc(CC=C(C)C)c1OC
REMARK SMILES IDX 29 1 23 2 22 3 8 4 7 5 6 6 30 7 31 8 24 9 25 10 26 11 27 12
REMARK SMILES IDX 28 13 5 14 4 15 2 16 1 17 3 18 9 19 10 20 21 21 11 22 20 23
REMARK SMILES IDX 12 24 13 25 19 26 14 27 17 28 16 29 15 30 18 32
REMARK H PARENT 15 31 18 33
ROOT
ATOM      1  C   UNL     1      87.997  51.714  40.801  1.00  0.00     0.129 A 
ATOM      2  C   UNL     1      88.883  51.113  41.713  1.00  0.00    -0.001 A 
ATOM      3  C   UNL     1      88.610  51.213  43.087  1.00  0.00     0.015 A 
ATOM      4  C   UNL     1      87.480  51.897  43.560  1.00  0.00    -0.006 A 
ATOM      5  C   UNL     1      86.629  52.514  42.630  1.00  0.00     0.019 A 
ATOM      6  C   UNL     1      86.884  52.450  41.251  1.00  0.00     0.017 A 
ENDROOT
BRANCH   1   7
ATOM      7  O   UNL     1      88.286  51.622  39.459  1.00  0.00    -0.496 OA
ATOM      8  C   UNL     1      89.009  52.775  39.026  1.00  0.00     0.278 C 
ENDBRANCH   1   7
BRANCH   2   9
ATOM      9  C   UNL     1      90.143  50.404  41.266  1.00  0.00     0.066 C 
BRANCH   9  10
ATOM     10  C   UNL     1      90.042  48.912  41.443  1.00  0.00    -0.023 C 
ATOM     11  C   UNL     1      90.603  48.141  42.396  1.00  0.00    -0.080 C 
ATOM     12  C   UNL     1      91.497  48.632  43.500  1.00  0.00     0.039 C 
ATOM     13  C   UNL     1      90.366  46.653  42.410  1.00  0.00     0.039 C 
ENDBRANCH   9  10
ENDBRANCH   2   9
BRANCH   6  14
ATOM     14  C   UNL     1      85.946  53.159  40.364  1.00  0.00     0.012 C 
ATOM     15  C   UNL     1      84.901  53.868  40.822  1.00  0.00     0.003 C 
BRANCH  15  16
ATOM     16  C   UNL     1      83.929  54.584  40.008  1.00  0.00    -0.058 C 
ATOM     17  C   UNL     1      82.657  54.692  40.428  1.00  0.00     0.012 C 
ATOM     18  C   UNL     1      84.359  55.196  38.702  1.00  0.00     0.043 C 
ENDBRANCH  15  16
ENDBRANCH   6  14
BRANCH   4  19
ATOM     19  C   UNL     1      87.202  52.026  45.046  1.00  0.00     0.211 C 
ATOM     20  C   UNL     1      86.962  50.662  45.670  1.00  0.00     0.131 C 
ATOM     21  O   UNL     1      86.054  52.869  45.223  1.00  0.00    -0.484 OA
ATOM     22  C   UNL     1      86.763  50.864  47.146  1.00  0.00     0.174 C 
ATOM     23  C   UNL     1      85.675  52.999  46.535  1.00  0.00     0.138 A 
ATOM     24  O   UNL     1      87.183  50.040  47.951  1.00  0.00    -0.294 OA
ATOM     25  C   UNL     1      85.998  52.078  47.542  1.00  0.00     0.102 A 
ATOM     26  C   UNL     1      84.902  54.127  46.821  1.00  0.00     0.093 A 
ATOM     27  C   UNL     1      85.562  52.320  48.851  1.00  0.00     0.133 A 
ATOM     28  C   UNL     1      84.478  54.347  48.126  1.00  0.00     0.123 A 
ATOM     29  C   UNL     1      84.806  53.458  49.142  1.00  0.00     0.093 A 
BRANCH  27  30
ATOM     30  O   UNL     1      85.853  51.450  49.862  1.00  0.00    -0.507 OA
ATOM     31  H   UNL     1      85.926  51.925  50.705  1.00  0.00     0.293 HD
ENDBRANCH  27  30
BRANCH  28  32
ATOM     32  O   UNL     1      83.731  55.438  48.455  1.00  0.00    -0.508 OA
ATOM     33  H   UNL     1      82.825  55.315  48.124  1.00  0.00     0.293 HD
ENDBRANCH  28  32
ENDBRANCH   4  19
TORSDOF 8
ENDMDL
MODEL 2
REMARK VINA RESULT:    -9.375      4.093      5.362
REMARK INTER + INTRA:         -14.370
REMARK INTER:                 -13.293
REMARK INTRA:                  -1.078
REMARK UNBOUND:                -1.159
REMARK SMILES C=C(C)/C=C/c1cc([C@@H]2CC(=O)c3c(O)cc(O)cc3O2)cc(CC=C(C)C)c1OC
REMARK SMILES IDX 29 1 23 2 22 3 8 4 7 5 6 6 30 7 31 8 24 9 25 10 26 11 27 12
REMARK SMILES IDX 28 13 5 14 4 15 2 16 1 17 3 18 9 19 10 20 21 21 11 22 20 23
REMARK SMILES IDX 12 24 13 25 19 26 14 27 17 28 16 29 15 30 18 32
REMARK H PARENT 15 31 18 33
ROOT
ATOM      1  C   UNL     1      84.589  47.558  43.266  1.00  0.00     0.129 A 
ATOM      2  C   UNL     1      85.861  48.142  43.123  1.00  0.00    -0.001 A 
ATOM      3  C   UNL     1      85.999  49.523  43.340  1.00  0.00     0.015 A 
ATOM      4  C   UNL     1      84.901  50.321  43.692  1.00  0.00    -0.006 A 
ATOM      5  C   UNL     1      83.637  49.719  43.797  1.00  0.00     0.019 A 
ATOM      6  C   UNL     1      83.461  48.345  43.567  1.00  0.00     0.017 A 
ENDROOT
BRANCH   1   7
ATOM      7  O   UNL     1      84.465  46.208  43.034  1.00  0.00    -0.496 OA
ATOM      8  C   UNL     1      84.663  45.475  44.244  1.00  0.00     0.278 C 
ENDBRANCH   1   7
BRANCH   2   9
ATOM      9  C   UNL     1      87.073  47.342  42.699  1.00  0.00     0.066 C 
BRANCH   9  10
ATOM     10  C   UNL     1      88.207  48.229  42.258  1.00  0.00    -0.023 C 
ATOM     11  C   UNL     1      89.507  47.911  42.100  1.00  0.00    -0.080 C 
ATOM     12  C   UNL     1      90.113  46.562  42.367  1.00  0.00     0.039 C 
ATOM     13  C   UNL     1      90.494  48.948  41.629  1.00  0.00     0.039 C 
ENDBRANCH   9  10
ENDBRANCH   2   9
BRANCH   6  14
ATOM     14  C   UNL     1      82.089  47.821  43.671  1.00  0.00     0.012 C 
ATOM     15  C   UNL     1      81.047  48.574  44.061  1.00  0.00     0.003 C 
BRANCH  15  16
ATOM     16  C   UNL     1      79.668  48.123  44.198  1.00  0.00    -0.058 C 
ATOM     17  C   UNL     1      79.347  46.855  43.894  1.00  0.00     0.012 C 
ATOM     18  C   UNL     1      78.616  49.086  44.680  1.00  0.00     0.043 C 
ENDBRANCH  15  16
ENDBRANCH   6  14
BRANCH   4  19
ATOM     19  C   UNL     1      85.050  51.817  43.899  1.00  0.00     0.211 C 
ATOM     20  C   UNL     1      86.416  52.292  43.436  1.00  0.00     0.131 C 
ATOM     21  O   UNL     1      84.864  52.103  45.294  1.00  0.00    -0.484 OA
ATOM     22  C   UNL     1      86.463  53.785  43.609  1.00  0.00     0.174 C 
ATOM     23  C   UNL     1      85.044  53.427  45.603  1.00  0.00     0.138 A 
ATOM     24  O   UNL     1      87.060  54.488  42.802  1.00  0.00    -0.294 OA
ATOM     25  C   UNL     1      85.791  54.322  44.823  1.00  0.00     0.102 A 
ATOM     26  C   UNL     1      84.443  53.847  46.792  1.00  0.00     0.093 A 
ATOM     27  C   UNL     1      85.899  55.657  45.236  1.00  0.00     0.133 A 
ATOM     28  C   UNL     1      84.563  55.174  47.183  1.00  0.00     0.123 A 
ATOM     29  C   UNL     1      85.280  56.083  46.414  1.00  0.00     0.093 A 
BRANCH  27  30
ATOM     30  O   UNL     1      86.616  56.562  44.508  1.00  0.00    -0.507 OA
ATOM     31  H   UNL     1      86.225  56.671  43.626  1.00  0.00     0.293 HD
ENDBRANCH  27  30
BRANCH  28  32
ATOM     32  O   UNL     1      83.986  55.633  48.330  1.00  0.00    -0.508 OA
ATOM     33  H   UNL     1      84.469  55.277  49.094  1.00  0.00     0.293 HD
ENDBRANCH  28  32
ENDBRANCH   4  19
TORSDOF 8
ENDMDL
MODEL 3
REMARK VINA RESULT:    -9.294      3.061      5.285
REMARK INTER + INTRA:         -14.256
REMARK INTER:                 -13.102
REMARK INTRA:                  -1.154
REMARK UNBOUND:                -1.159
REMARK SMILES C=C(C)/C=C/c1cc([C@@H]2CC(=O)c3c(O)cc(O)cc3O2)cc(CC=C(C)C)c1OC
REMARK SMILES IDX 29 1 23 2 22 3 8 4 7 5 6 6 30 7 31 8 24 9 25 10 26 11 27 12
REMARK SMILES IDX 28 13 5 14 4 15 2 16 1 17 3 18 9 19 10 20 21 21 11 22 20 23
REMARK SMILES IDX 12 24 13 25 19 26 14 27 17 28 16 29 15 30 18 32
REMARK H PARENT 15 31 18 33
ROOT
ATOM      1  C   UNL     1      87.663  49.200  42.380  1.00  0.00     0.129 A 
ATOM      2  C   UNL     1      88.482  50.344  42.374  1.00  0.00    -0.001 A 
ATOM      3  C   UNL     1      88.099  51.454  43.145  1.00  0.00     0.015 A 
ATOM      4  C   UNL     1      86.925  51.441  43.913  1.00  0.00    -0.006 A 
ATOM      5  C   UNL     1      86.110  50.299  43.877  1.00  0.00     0.019 A 
ATOM      6  C   UNL     1      86.454  49.180  43.101  1.00  0.00     0.017 A 
ENDROOT
BRANCH   1   7
ATOM      7  O   UNL     1      88.042  48.127  41.608  1.00  0.00    -0.496 OA
ATOM      8  C   UNL     1      88.932  47.279  42.335  1.00  0.00     0.278 C 
ENDBRANCH   1   7
BRANCH   2   9
ATOM      9  C   UNL     1      89.733  50.435  41.529  1.00  0.00     0.066 C 
BRANCH   9  10
ATOM     10  C   UNL     1      90.125  51.864  41.256  1.00  0.00    -0.023 C 
ATOM     11  C   UNL     1      89.758  52.652  40.227  1.00  0.00    -0.080 C 
ATOM     12  C   UNL     1      88.869  52.240  39.087  1.00  0.00     0.039 C 
ATOM     13  C   UNL     1      90.250  54.074  40.142  1.00  0.00     0.039 C 
ENDBRANCH   9  10
ENDBRANCH   2   9
BRANCH   6  14
ATOM     14  C   UNL     1      85.513  48.047  43.109  1.00  0.00     0.012 C 
ATOM     15  C   UNL     1      85.626  47.010  43.955  1.00  0.00     0.003 C 
BRANCH  15  16
ATOM     16  C   UNL     1      84.743  45.852  44.014  1.00  0.00    -0.058 C 
ATOM     17  C   UNL     1      85.258  44.630  44.230  1.00  0.00     0.012 C 
ATOM     18  C   UNL     1      83.260  46.038  43.831  1.00  0.00     0.043 C 
ENDBRANCH  15  16
ENDBRANCH   6  14
BRANCH   4  19
ATOM     19  C   UNL     1      86.502  52.652  44.724  1.00  0.00     0.211 C 
ATOM     20  C   UNL     1      85.166  52.406  45.403  1.00  0.00     0.131 C 
ATOM     21  O   UNL     1      86.417  53.782  43.842  1.00  0.00    -0.484 OA
ATOM     22  C   UNL     1      84.848  53.616  46.237  1.00  0.00     0.174 C 
ATOM     23  C   UNL     1      85.976  54.922  44.464  1.00  0.00     0.138 A 
ATOM     24  O   UNL     1      84.278  53.499  47.315  1.00  0.00    -0.294 OA
ATOM     25  C   UNL     1      85.224  54.930  45.648  1.00  0.00     0.102 A 
ATOM     26  C   UNL     1      86.306  56.117  43.821  1.00  0.00     0.093 A 
ATOM     27  C   UNL     1      84.834  56.159  46.198  1.00  0.00     0.133 A 
ATOM     28  C   UNL     1      85.909  57.324  44.382  1.00  0.00     0.123 A 
ATOM     29  C   UNL     1      85.182  57.355  45.566  1.00  0.00     0.093 A 
BRANCH  27  30
ATOM     30  O   UNL     1      84.102  56.214  47.348  1.00  0.00    -0.507 OA
ATOM     31  H   UNL     1      84.339  57.003  47.862  1.00  0.00     0.293 HD
ENDBRANCH  27  30
BRANCH  28  32
ATOM     32  O   UNL     1      86.217  58.515  43.795  1.00  0.00    -0.508 OA
ATOM     33  H   UNL     1      85.984  58.475  42.852  1.00  0.00     0.293 HD
ENDBRANCH  28  32
ENDBRANCH   4  19
TORSDOF 8
ENDMDL
MODEL 4
REMARK VINA RESULT:    -9.246      3.859      6.689
REMARK INTER + INTRA:         -14.189
REMARK INTER:                 -13.187
REMARK INTRA:                  -1.002
REMARK UNBOUND:                -1.159
REMARK SMILES C=C(C)/C=C/c1cc([C@@H]2CC(=O)c3c(O)cc(O)cc3O2)cc(CC=C(C)C)c1OC
REMARK SMILES IDX 29 1 23 2 22 3 8 4 7 5 6 6 30 7 31 8 24 9 25 10 26 11 27 12
REMARK SMILES IDX 28 13 5 14 4 15 2 16 1 17 3 18 9 19 10 20 21 21 11 22 20 23
REMARK SMILES IDX 12 24 13 25 19 26 14 27 17 28 16 29 15 30 18 32
REMARK H PARENT 15 31 18 33
ROOT
ATOM      1  C   UNL     1      85.236  47.667  43.154  1.00  0.00     0.129 A 
ATOM      2  C   UNL     1      83.997  48.237  43.497  1.00  0.00    -0.001 A 
ATOM      3  C   UNL     1      83.933  49.617  43.750  1.00  0.00     0.015 A 
ATOM      4  C   UNL     1      85.075  50.429  43.668  1.00  0.00    -0.006 A 
ATOM      5  C   UNL     1      86.304  49.830  43.353  1.00  0.00     0.019 A 
ATOM      6  C   UNL     1      86.406  48.450  43.115  1.00  0.00     0.017 A 
ENDROOT
BRANCH   1   7
ATOM      7  O   UNL     1      85.286  46.312  42.926  1.00  0.00    -0.496 OA
ATOM      8  C   UNL     1      85.583  45.614  44.136  1.00  0.00     0.278 C 
ENDBRANCH   1   7
BRANCH   2   9
ATOM      9  C   UNL     1      82.742  47.406  43.649  1.00  0.00     0.066 C 
BRANCH   9  10
ATOM     10  C   UNL     1      81.526  48.261  43.888  1.00  0.00    -0.023 C 
ATOM     11  C   UNL     1      80.360  47.917  44.471  1.00  0.00    -0.080 C 
ATOM     12  C   UNL     1      80.017  46.550  44.994  1.00  0.00     0.039 C 
ATOM     13  C   UNL     1      79.259  48.933  44.633  1.00  0.00     0.039 C 
ENDBRANCH   9  10
ENDBRANCH   2   9
BRANCH   6  14
ATOM     14  C   UNL     1      87.749  47.919  42.825  1.00  0.00     0.012 C 
ATOM     15  C   UNL     1      88.847  48.692  42.784  1.00  0.00     0.003 C 
BRANCH  15  16
ATOM     16  C   UNL     1      90.201  48.241  42.495  1.00  0.00    -0.058 C 
ATOM     17  C   UNL     1      91.194  49.139  42.379  1.00  0.00     0.012 C 
ATOM     18  C   UNL     1      90.475  46.770  42.326  1.00  0.00     0.043 C 
ENDBRANCH  15  16
ENDBRANCH   6  14
BRANCH   4  19
ATOM     19  C   UNL     1      85.007  51.915  43.967  1.00  0.00     0.211 C 
ATOM     20  C   UNL     1      86.222  52.634  43.409  1.00  0.00     0.131 C 
ATOM     21  O   UNL     1      84.929  52.088  45.390  1.00  0.00    -0.484 OA
ATOM     22  C   UNL     1      86.051  54.102  43.684  1.00  0.00     0.174 C 
ATOM     23  C   UNL     1      84.930  53.404  45.776  1.00  0.00     0.138 A 
ATOM     24  O   UNL     1      86.439  54.937  42.876  1.00  0.00    -0.294 OA
ATOM     25  C   UNL     1      85.438  54.452  44.994  1.00  0.00     0.102 A 
ATOM     26  C   UNL     1      84.401  53.653  47.045  1.00  0.00     0.093 A 
ATOM     27  C   UNL     1      85.377  55.762  45.490  1.00  0.00     0.133 A 
ATOM     28  C   UNL     1      84.352  54.958  47.518  1.00  0.00     0.123 A 
ATOM     29  C   UNL     1      84.829  56.013  46.750  1.00  0.00     0.093 A 
BRANCH  27  30
ATOM     30  O   UNL     1      85.859  56.812  44.763  1.00  0.00    -0.507 OA
ATOM     31  H   UNL     1      86.048  56.534  43.852  1.00  0.00     0.293 HD
ENDBRANCH  27  30
BRANCH  28  32
ATOM     32  O   UNL     1      83.836  55.250  48.745  1.00  0.00    -0.508 OA
ATOM     33  H   UNL     1      84.184  56.109  49.040  1.00  0.00     0.293 HD
ENDBRANCH  28  32
ENDBRANCH   4  19
TORSDOF 8
ENDMDL
MODEL 5
REMARK VINA RESULT:    -9.182      4.067      4.755
REMARK INTER + INTRA:         -14.099
REMARK INTER:                 -12.979
REMARK INTRA:                  -1.120
REMARK UNBOUND:                -1.159
REMARK SMILES C=C(C)/C=C/c1cc([C@@H]2CC(=O)c3c(O)cc(O)cc3O2)cc(CC=C(C)C)c1OC
REMARK SMILES IDX 29 1 23 2 22 3 8 4 7 5 6 6 30 7 31 8 24 9 25 10 26 11 27 12
REMARK SMILES IDX 28 13 5 14 4 15 2 16 1 17 3 18 9 19 10 20 21 21 11 22 20 23
REMARK SMILES IDX 12 24 13 25 19 26 14 27 17 28 16 29 15 30 18 32
REMARK H PARENT 15 31 18 33
ROOT
ATOM      1  C   UNL     1      88.420  52.081  42.094  1.00  0.00     0.129 A 
ATOM      2  C   UNL     1      88.522  50.682  41.987  1.00  0.00    -0.001 A 
ATOM      3  C   UNL     1      87.450  49.890  42.430  1.00  0.00     0.015 A 
ATOM      4  C   UNL     1      86.292  50.465  42.973  1.00  0.00    -0.006 A 
ATOM      5  C   UNL     1      86.229  51.862  43.097  1.00  0.00     0.019 A 
ATOM      6  C   UNL     1      87.291  52.681  42.682  1.00  0.00     0.017 A 
ENDROOT
BRANCH   1   7
ATOM      7  O   UNL     1      89.485  52.843  41.671  1.00  0.00    -0.496 OA
ATOM      8  C   UNL     1      89.450  53.003  40.252  1.00  0.00     0.278 C 
ENDBRANCH   1   7
BRANCH   2   9
ATOM      9  C   UNL     1      89.764  50.002  41.455  1.00  0.00     0.066 C 
BRANCH   9  10
ATOM     10  C   UNL     1      89.682  48.503  41.577  1.00  0.00    -0.023 C 
ATOM     11  C   UNL     1      90.305  47.698  42.461  1.00  0.00    -0.080 C 
ATOM     12  C   UNL     1      91.265  48.151  43.526  1.00  0.00     0.039 C 
ATOM     13  C   UNL     1      90.076  46.209  42.430  1.00  0.00     0.039 C 
ENDBRANCH   9  10
ENDBRANCH   2   9
BRANCH   6  14
ATOM     14  C   UNL     1      87.136  54.132  42.887  1.00  0.00     0.012 C 
ATOM     15  C   UNL     1      86.009  54.685  43.364  1.00  0.00     0.003 C 
BRANCH  15  16
ATOM     16  C   UNL     1      85.779  56.107  43.582  1.00  0.00    -0.058 C 
ATOM     17  C   UNL     1      86.695  56.839  44.238  1.00  0.00     0.012 C 
ATOM     18  C   UNL     1      84.514  56.743  43.069  1.00  0.00     0.043 C 
ENDBRANCH  15  16
ENDBRANCH   6  14
BRANCH   4  19
ATOM     19  C   UNL     1      85.147  49.605  43.475  1.00  0.00     0.211 C 
ATOM     20  C   UNL     1      85.362  48.149  43.100  1.00  0.00     0.131 C 
ATOM     21  O   UNL     1      83.925  50.096  42.903  1.00  0.00    -0.484 OA
ATOM     22  C   UNL     1      84.228  47.354  43.686  1.00  0.00     0.174 C 
ATOM     23  C   UNL     1      82.829  49.345  43.242  1.00  0.00     0.138 A 
ATOM     24  O   UNL     1      84.418  46.224  44.121  1.00  0.00    -0.294 OA
ATOM     25  C   UNL     1      82.891  48.006  43.656  1.00  0.00     0.102 A 
ATOM     26  C   UNL     1      81.600  49.999  43.125  1.00  0.00     0.093 A 
ATOM     27  C   UNL     1      81.702  47.340  43.985  1.00  0.00     0.133 A 
ATOM     28  C   UNL     1      80.434  49.320  43.454  1.00  0.00     0.123 A 
ATOM     29  C   UNL     1      80.475  48.000  43.888  1.00  0.00     0.093 A 
BRANCH  27  30
ATOM     30  O   UNL     1      81.716  46.038  44.393  1.00  0.00    -0.507 OA
ATOM     31  H   UNL     1      81.374  45.964  45.298  1.00  0.00     0.293 HD
ENDBRANCH  27  30
BRANCH  28  32
ATOM     32  O   UNL     1      79.213  49.919  43.366  1.00  0.00    -0.508 OA
ATOM     33  H   UNL     1      79.278  50.689  42.776  1.00  0.00     0.293 HD
ENDBRANCH  28  32
ENDBRANCH   4  19
TORSDOF 8
ENDMDL
MODEL 6
REMARK VINA RESULT:    -9.144      3.020      5.370
REMARK INTER + INTRA:         -14.046
REMARK INTER:                 -13.024
REMARK INTRA:                  -1.022
REMARK UNBOUND:                -1.159
REMARK SMILES C=C(C)/C=C/c1cc([C@@H]2CC(=O)c3c(O)cc(O)cc3O2)cc(CC=C(C)C)c1OC
REMARK SMILES IDX 29 1 23 2 22 3 8 4 7 5 6 6 30 7 31 8 24 9 25 10 26 11 27 12
REMARK SMILES IDX 28 13 5 14 4 15 2 16 1 17 3 18 9 19 10 20 21 21 11 22 20 23
REMARK SMILES IDX 12 24 13 25 19 26 14 27 17 28 16 29 15 30 18 32
REMARK H PARENT 15 31 18 33
ROOT
ATOM      1  C   UNL     1      87.876  48.986  43.084  1.00  0.00     0.129 A 
ATOM      2  C   UNL     1      88.477  50.193  42.684  1.00  0.00    -0.001 A 
ATOM      3  C   UNL     1      87.809  51.401  42.947  1.00  0.00     0.015 A 
ATOM      4  C   UNL     1      86.564  51.422  43.593  1.00  0.00    -0.006 A 
ATOM      5  C   UNL     1      85.972  50.201  43.953  1.00  0.00     0.019 A 
ATOM      6  C   UNL     1      86.604  48.976  43.687  1.00  0.00     0.017 A 
ENDROOT
BRANCH   1   7
ATOM      7  O   UNL     1      88.533  47.811  42.805  1.00  0.00    -0.496 OA
ATOM      8  C   UNL     1      88.217  47.364  41.486  1.00  0.00     0.278 C 
ENDBRANCH   1   7
BRANCH   2   9
ATOM      9  C   UNL     1      89.794  50.231  41.941  1.00  0.00     0.066 C 
BRANCH   9  10
ATOM     10  C   UNL     1      90.186  51.635  41.562  1.00  0.00    -0.023 C 
ATOM     11  C   UNL     1      89.826  52.341  40.472  1.00  0.00    -0.080 C 
ATOM     12  C   UNL     1      88.948  51.840  39.360  1.00  0.00     0.039 C 
ATOM     13  C   UNL     1      90.317  53.753  40.282  1.00  0.00     0.039 C 
ENDBRANCH   9  10
ENDBRANCH   2   9
BRANCH   6  14
ATOM     14  C   UNL     1      85.881  47.753  44.077  1.00  0.00     0.012 C 
ATOM     15  C   UNL     1      84.956  47.171  43.296  1.00  0.00     0.003 C 
BRANCH  15  16
ATOM     16  C   UNL     1      84.195  45.972  43.618  1.00  0.00    -0.058 C 
ATOM     17  C   UNL     1      84.811  44.779  43.653  1.00  0.00     0.012 C 
ATOM     18  C   UNL     1      82.722  46.082  43.909  1.00  0.00     0.043 C 
ENDBRANCH  15  16
ENDBRANCH   6  14
BRANCH   4  19
ATOM     19  C   UNL     1      85.833  52.727  43.851  1.00  0.00     0.211 C 
ATOM     20  C   UNL     1      86.485  53.869  43.091  1.00  0.00     0.131 C 
ATOM     21  O   UNL     1      85.852  52.986  45.263  1.00  0.00    -0.484 OA
ATOM     22  C   UNL     1      85.670  55.108  43.341  1.00  0.00     0.174 C 
ATOM     23  C   UNL     1      85.272  54.183  45.600  1.00  0.00     0.138 A 
ATOM     24  O   UNL     1      85.515  55.942  42.457  1.00  0.00    -0.294 OA
ATOM     25  C   UNL     1      85.123  55.262  44.717  1.00  0.00     0.102 A 
ATOM     26  C   UNL     1      84.843  54.282  46.926  1.00  0.00     0.093 A 
ATOM     27  C   UNL     1      84.507  56.434  45.173  1.00  0.00     0.133 A 
ATOM     28  C   UNL     1      84.235  55.454  47.358  1.00  0.00     0.123 A 
ATOM     29  C   UNL     1      84.058  56.527  46.492  1.00  0.00     0.093 A 
BRANCH  27  30
ATOM     30  O   UNL     1      84.341  57.509  44.347  1.00  0.00    -0.507 OA
ATOM     31  H   UNL     1      83.540  57.999  44.588  1.00  0.00     0.293 HD
ENDBRANCH  27  30
BRANCH  28  32
ATOM     32  O   UNL     1      83.791  55.595  48.639  1.00  0.00    -0.508 OA
ATOM     33  H   UNL     1      84.524  55.412  49.252  1.00  0.00     0.293 HD
ENDBRANCH  28  32
ENDBRANCH   4  19
TORSDOF 8
ENDMDL
MODEL 7
REMARK VINA RESULT:    -9.138      3.384      4.755
REMARK INTER + INTRA:         -14.037
REMARK INTER:                 -13.060
REMARK INTRA:                  -0.977
REMARK UNBOUND:                -1.159
REMARK SMILES C=C(C)/C=C/c1cc([C@@H]2CC(=O)c3c(O)cc(O)cc3O2)cc(CC=C(C)C)c1OC
REMARK SMILES IDX 29 1 23 2 22 3 8 4 7 5 6 6 30 7 31 8 24 9 25 10 26 11 27 12
REMARK SMILES IDX 28 13 5 14 4 15 2 16 1 17 3 18 9 19 10 20 21 21 11 22 20 23
REMARK SMILES IDX 12 24 13 25 19 26 14 27 17 28 16 29 15 30 18 32
REMARK H PARENT 15 31 18 33
ROOT
ATOM      1  C   UNL     1      86.527  49.107  42.663  1.00  0.00     0.129 A 
ATOM      2  C   UNL     1      87.496  50.123  42.567  1.00  0.00    -0.001 A 
ATOM      3  C   UNL     1      87.303  51.312  43.291  1.00  0.00     0.015 A 
ATOM      4  C   UNL     1      86.171  51.501  44.098  1.00  0.00    -0.006 A 
ATOM      5  C   UNL     1      85.205  50.484  44.152  1.00  0.00     0.019 A 
ATOM      6  C   UNL     1      85.358  49.292  43.425  1.00  0.00     0.017 A 
ENDROOT
BRANCH   1   7
ATOM      7  O   UNL     1      86.721  47.956  41.936  1.00  0.00    -0.496 OA
ATOM      8  C   UNL     1      86.998  46.858  42.807  1.00  0.00     0.278 C 
ENDBRANCH   1   7
BRANCH   2   9
ATOM      9  C   UNL     1      88.711  49.997  41.676  1.00  0.00     0.066 C 
BRANCH   9  10
ATOM     10  C   UNL     1      89.976  49.814  42.471  1.00  0.00    -0.023 C 
ATOM     11  C   UNL     1      90.722  48.700  42.616  1.00  0.00    -0.080 C 
ATOM     12  C   UNL     1      90.413  47.360  42.010  1.00  0.00     0.039 C 
ATOM     13  C   UNL     1      91.977  48.725  43.450  1.00  0.00     0.039 C 
ENDBRANCH   9  10
ENDBRANCH   2   9
BRANCH   6  14
ATOM     14  C   UNL     1      84.270  48.304  43.526  1.00  0.00     0.012 C 
ATOM     15  C   UNL     1      82.978  48.650  43.648  1.00  0.00     0.003 C 
BRANCH  15  16
ATOM     16  C   UNL     1      81.853  47.733  43.764  1.00  0.00    -0.058 C 
ATOM     17  C   UNL     1      80.597  48.207  43.717  1.00  0.00     0.012 C 
ATOM     18  C   UNL     1      82.110  46.259  43.937  1.00  0.00     0.043 C 
ENDBRANCH  15  16
ENDBRANCH   6  14
BRANCH   4  19
ATOM     19  C   UNL     1      85.954  52.797  44.857  1.00  0.00     0.211 C 
ATOM     20  C   UNL     1      84.681  52.731  45.683  1.00  0.00     0.131 C 
ATOM     21  O   UNL     1      85.884  53.872  43.909  1.00  0.00    -0.484 OA
ATOM     22  C   UNL     1      84.570  54.017  46.454  1.00  0.00     0.174 C 
ATOM     23  C   UNL     1      85.622  55.088  44.488  1.00  0.00     0.138 A 
ATOM     24  O   UNL     1      84.109  54.026  47.589  1.00  0.00    -0.294 OA
ATOM     25  C   UNL     1      85.004  55.246  45.738  1.00  0.00     0.102 A 
ATOM     26  C   UNL     1      85.994  56.200  43.730  1.00  0.00     0.093 A 
ATOM     27  C   UNL     1      84.794  56.541  46.233  1.00  0.00     0.133 A 
ATOM     28  C   UNL     1      85.776  57.474  44.239  1.00  0.00     0.123 A 
ATOM     29  C   UNL     1      85.185  57.653  45.484  1.00  0.00     0.093 A 
BRANCH  27  30
ATOM     30  O   UNL     1      84.197  56.742  47.443  1.00  0.00    -0.507 OA
ATOM     31  H   UNL     1      84.868  56.869  48.133  1.00  0.00     0.293 HD
ENDBRANCH  27  30
BRANCH  28  32
ATOM     32  O   UNL     1      86.131  58.589  43.540  1.00  0.00    -0.508 OA
ATOM     33  H   UNL     1      86.418  58.328  42.649  1.00  0.00     0.293 HD
ENDBRANCH  28  32
ENDBRANCH   4  19
TORSDOF 8
ENDMDL
MODEL 8
REMARK VINA RESULT:    -8.969      2.585      6.859
REMARK INTER + INTRA:         -13.799
REMARK INTER:                 -12.656
REMARK INTRA:                  -1.144
REMARK UNBOUND:                -1.159
REMARK SMILES C=C(C)/C=C/c1cc([C@@H]2CC(=O)c3c(O)cc(O)cc3O2)cc(CC=C(C)C)c1OC
REMARK SMILES IDX 29 1 23 2 22 3 8 4 7 5 6 6 30 7 31 8 24 9 25 10 26 11 27 12
REMARK SMILES IDX 28 13 5 14 4 15 2 16 1 17 3 18 9 19 10 20 21 21 11 22 20 23
REMARK SMILES IDX 12 24 13 25 19 26 14 27 17 28 16 29 15 30 18 32
REMARK H PARENT 15 31 18 33
ROOT
ATOM      1  C   UNL     1      85.436  54.582  44.772  1.00  0.00     0.129 A 
ATOM      2  C   UNL     1      86.232  53.947  45.743  1.00  0.00    -0.001 A 
ATOM      3  C   UNL     1      86.942  52.789  45.384  1.00  0.00     0.015 A 
ATOM      4  C   UNL     1      86.870  52.261  44.087  1.00  0.00    -0.006 A 
ATOM      5  C   UNL     1      86.045  52.896  43.146  1.00  0.00     0.019 A 
ATOM      6  C   UNL     1      85.307  54.043  43.478  1.00  0.00     0.017 A 
ENDROOT
BRANCH   1   7
ATOM      7  O   UNL     1      84.733  55.705  45.143  1.00  0.00    -0.496 OA
ATOM      8  C   UNL     1      85.500  56.881  44.881  1.00  0.00     0.278 C 
ENDBRANCH   1   7
BRANCH   2   9
ATOM      9  C   UNL     1      86.310  54.442  47.171  1.00  0.00     0.066 C 
BRANCH   9  10
ATOM     10  C   UNL     1      85.148  53.959  47.998  1.00  0.00    -0.023 C 
ATOM     11  C   UNL     1      85.049  52.828  48.725  1.00  0.00    -0.080 C 
ATOM     12  C   UNL     1      86.109  51.768  48.838  1.00  0.00     0.039 C 
ATOM     13  C   UNL     1      83.795  52.531  49.506  1.00  0.00     0.039 C 
ENDBRANCH   9  10
ENDBRANCH   2   9
BRANCH   6  14
ATOM     14  C   UNL     1      84.446  54.611  42.426  1.00  0.00     0.012 C 
ATOM     15  C   UNL     1      83.427  53.935  41.871  1.00  0.00     0.003 C 
BRANCH  15  16
ATOM     16  C   UNL     1      82.544  54.426  40.822  1.00  0.00    -0.058 C 
ATOM     17  C   UNL     1      81.216  54.251  40.931  1.00  0.00     0.012 C 
ATOM     18  C   UNL     1      83.129  55.125  39.624  1.00  0.00     0.043 C 
ENDBRANCH  15  16
ENDBRANCH   6  14
BRANCH   4  19
ATOM     19  C   UNL     1      87.619  50.995  43.711  1.00  0.00     0.211 C 
ATOM     20  C   UNL     1      88.619  51.269  42.602  1.00  0.00     0.131 C 
ATOM     21  O   UNL     1      86.662  50.009  43.293  1.00  0.00    -0.484 OA
ATOM     22  C   UNL     1      89.364  49.991  42.332  1.00  0.00     0.174 C 
ATOM     23  C   UNL     1      87.240  48.841  42.867  1.00  0.00     0.138 A 
ATOM     24  O   UNL     1      90.553  50.013  42.036  1.00  0.00    -0.294 OA
ATOM     25  C   UNL     1      88.561  48.741  42.403  1.00  0.00     0.102 A 
ATOM     26  C   UNL     1      86.408  47.720  42.896  1.00  0.00     0.093 A 
ATOM     27  C   UNL     1      89.046  47.490  41.999  1.00  0.00     0.133 A 
ATOM     28  C   UNL     1      86.909  46.490  42.490  1.00  0.00     0.123 A 
ATOM     29  C   UNL     1      88.221  46.364  42.048  1.00  0.00     0.093 A 
BRANCH  27  30
ATOM     30  O   UNL     1      90.324  47.346  41.542  1.00  0.00    -0.507 OA
ATOM     31  H   UNL     1      90.447  46.466  41.153  1.00  0.00     0.293 HD
ENDBRANCH  27  30
BRANCH  28  32
ATOM     32  O   UNL     1      86.137  45.366  42.510  1.00  0.00    -0.508 OA
ATOM     33  H   UNL     1      85.326  45.546  43.014  1.00  0.00     0.293 HD
ENDBRANCH  28  32
ENDBRANCH   4  19
TORSDOF 8
ENDMDL
MODEL 9
REMARK VINA RESULT:    -8.776      4.679      5.840
REMARK INTER + INTRA:         -13.526
REMARK INTER:                 -12.367
REMARK INTRA:                  -1.159
REMARK UNBOUND:                -1.159
REMARK SMILES C=C(C)/C=C/c1cc([C@@H]2CC(=O)c3c(O)cc(O)cc3O2)cc(CC=C(C)C)c1OC
REMARK SMILES IDX 29 1 23 2 22 3 8 4 7 5 6 6 30 7 31 8 24 9 25 10 26 11 27 12
REMARK SMILES IDX 28 13 5 14 4 15 2 16 1 17 3 18 9 19 10 20 21 21 11 22 20 23
REMARK SMILES IDX 12 24 13 25 19 26 14 27 17 28 16 29 15 30 18 32
REMARK H PARENT 15 31 18 33
ROOT
ATOM      1  C   UNL     1      87.530  51.260  43.188  1.00  0.00     0.129 A 
ATOM      2  C   UNL     1      87.338  50.092  42.428  1.00  0.00    -0.001 A 
ATOM      3  C   UNL     1      86.215  49.290  42.692  1.00  0.00     0.015 A 
ATOM      4  C   UNL     1      85.293  49.630  43.693  1.00  0.00    -0.006 A 
ATOM      5  C   UNL     1      85.525  50.784  44.458  1.00  0.00     0.019 A 
ATOM      6  C   UNL     1      86.648  51.597  44.232  1.00  0.00     0.017 A 
ENDROOT
BRANCH   1   7
ATOM      7  O   UNL     1      88.642  52.026  42.929  1.00  0.00    -0.496 OA
ATOM      8  C   UNL     1      88.342  53.025  41.953  1.00  0.00     0.278 C 
ENDBRANCH   1   7
BRANCH   2   9
ATOM      9  C   UNL     1      88.322  49.647  41.369  1.00  0.00     0.066 C 
BRANCH   9  10
ATOM     10  C   UNL     1      88.889  48.283  41.665  1.00  0.00    -0.023 C 
ATOM     11  C   UNL     1      90.065  47.972  42.246  1.00  0.00    -0.080 C 
ATOM     12  C   UNL     1      91.097  48.961  42.709  1.00  0.00     0.039 C 
ATOM     13  C   UNL     1      90.446  46.531  42.471  1.00  0.00     0.039 C 
ENDBRANCH   9  10
ENDBRANCH   2   9
BRANCH   6  14
ATOM     14  C   UNL     1      86.814  52.766  45.113  1.00  0.00     0.012 C 
ATOM     15  C   UNL     1      85.963  53.056  46.110  1.00  0.00     0.003 C 
BRANCH  15  16
ATOM     16  C   UNL     1      86.056  54.196  47.011  1.00  0.00    -0.058 C 
ATOM     17  C   UNL     1      85.791  54.038  48.319  1.00  0.00     0.012 C 
ATOM     18  C   UNL     1      86.449  55.544  46.467  1.00  0.00     0.043 C 
ENDBRANCH  15  16
ENDBRANCH   6  14
BRANCH   4  19
ATOM     19  C   UNL     1      84.096  48.747  43.993  1.00  0.00     0.211 C 
ATOM     20  C   UNL     1      84.146  47.472  43.170  1.00  0.00     0.131 C 
ATOM     21  O   UNL     1      82.901  49.488  43.703  1.00  0.00    -0.484 OA
ATOM     22  C   UNL     1      82.971  46.624  43.569  1.00  0.00     0.174 C 
ATOM     23  C   UNL     1      81.754  48.755  43.878  1.00  0.00     0.138 A 
ATOM     24  O   UNL     1      83.070  45.403  43.615  1.00  0.00    -0.294 OA
ATOM     25  C   UNL     1      81.705  47.353  43.850  1.00  0.00     0.102 A 
ATOM     26  C   UNL     1      80.592  49.506  44.069  1.00  0.00     0.093 A 
ATOM     27  C   UNL     1      80.475  46.712  44.050  1.00  0.00     0.133 A 
ATOM     28  C   UNL     1      79.383  48.851  44.264  1.00  0.00     0.123 A 
ATOM     29  C   UNL     1      79.316  47.462  44.262  1.00  0.00     0.093 A 
BRANCH  27  30
ATOM     30  O   UNL     1      80.381  45.351  44.032  1.00  0.00    -0.507 OA
ATOM     31  H   UNL     1      81.219  44.950  44.312  1.00  0.00     0.293 HD
ENDBRANCH  27  30
BRANCH  28  32
ATOM     32  O   UNL     1      78.225  49.540  44.464  1.00  0.00    -0.508 OA
ATOM     33  H   UNL     1      78.024  50.063  43.670  1.00  0.00     0.293 HD
ENDBRANCH  28  32
ENDBRANCH   4  19
TORSDOF 8
ENDMDL
