MODEL 1
REMARK VINA RESULT:    -7.868      0.000      0.000
REMARK INTER + INTRA:         -10.831
REMARK INTER:                 -10.362
REMARK INTRA:                  -0.469
REMARK UNBOUND:                -0.203
REMARK SMILES COc1cc(-c2cc(=O)c3c(O)cc(O)cc3o2)c(OC)c(OC)c1OC
REMARK SMILES IDX 6 1 7 2 8 3 9 4 10 5 17 6 18 7 16 8 14 9 13 10 11 11 5 12
REMARK SMILES IDX 3 13 4 14 25 15 22 16 19 17 2 18 1 19 26 20 27 21 23 22
REMARK SMILES IDX 24 23 20 24 21 25 12 26 15 28
REMARK H PARENT 12 27 15 29
ROOT
ATOM      1  C   UNL     1      84.198  51.540  43.515  1.00  0.00     0.142 C 
ATOM      2  C   UNL     1      84.767  52.090  42.432  1.00  0.00     0.100 C 
ATOM      3  C   UNL     1      85.469  53.373  42.574  1.00  0.00     0.197 C 
ATOM      4  O   UNL     1      86.012  53.923  41.621  1.00  0.00    -0.289 OA
ATOM      5  C   UNL     1      85.498  53.974  43.911  1.00  0.00     0.107 A 
ATOM      6  C   UNL     1      84.876  53.293  44.956  1.00  0.00     0.146 A 
ATOM      7  O   UNL     1      84.240  52.089  44.787  1.00  0.00    -0.455 OA
ATOM      8  C   UNL     1      84.884  53.832  46.242  1.00  0.00     0.094 A 
ATOM      9  C   UNL     1      85.517  55.050  46.471  1.00  0.00     0.123 A 
ATOM     10  C   UNL     1      86.143  55.741  45.437  1.00  0.00     0.093 A 
ATOM     11  C   UNL     1      86.132  55.197  44.154  1.00  0.00     0.134 A 
ENDROOT
BRANCH   1  12
ATOM     12  C   UNL     1      83.488  50.247  43.442  1.00  0.00     0.067 A 
ATOM     13  C   UNL     1      81.357  49.069  43.260  1.00  0.00     0.165 A 
ATOM     14  C   UNL     1      82.088  50.260  43.305  1.00  0.00     0.066 A 
ATOM     15  C   UNL     1      82.039  47.843  43.367  1.00  0.00     0.207 A 
ATOM     16  C   UNL     1      83.439  47.803  43.441  1.00  0.00     0.208 A 
ATOM     17  C   UNL     1      84.155  49.009  43.482  1.00  0.00     0.175 A 
BRANCH  13  18
ATOM     18  O   UNL     1      79.992  48.994  43.148  1.00  0.00    -0.493 OA
ATOM     19  C   UNL     1      79.217  49.484  44.234  1.00  0.00     0.278 C 
ENDBRANCH  13  18
BRANCH  15  20
ATOM     20  O   UNL     1      81.311  46.674  43.365  1.00  0.00    -0.490 OA
ATOM     21  C   UNL     1      81.050  46.268  44.709  1.00  0.00     0.278 C 
ENDBRANCH  15  20
BRANCH  16  22
ATOM     22  O   UNL     1      84.162  46.640  43.552  1.00  0.00    -0.490 OA
ATOM     23  C   UNL     1      84.419  46.000  42.303  1.00  0.00     0.278 C 
ENDBRANCH  16  22
BRANCH  17  24
ATOM     24  O   UNL     1      85.526  48.988  43.613  1.00  0.00    -0.492 OA
ATOM     25  C   UNL     1      85.894  48.991  44.994  1.00  0.00     0.278 C 
ENDBRANCH  17  24
ENDBRANCH   1  12
BRANCH  11  26
ATOM     26  O   UNL     1      86.763  55.917  43.175  1.00  0.00    -0.507 OA
ATOM     27  H   UNL     1      87.426  56.503  43.605  1.00  0.00     0.293 HD
ENDBRANCH  11  26
BRANCH   9  28
ATOM     28  O   UNL     1      85.503  55.541  47.743  1.00  0.00    -0.508 OA
ATOM     29  H   UNL     1      86.420  55.663  48.044  1.00  0.00     0.293 HD
ENDBRANCH   9  28
TORSDOF 7
ENDMDL
MODEL 2
REMARK VINA RESULT:    -7.709      2.695      5.194
REMARK INTER + INTRA:         -10.615
REMARK INTER:                 -10.268
REMARK INTRA:                  -0.347
REMARK UNBOUND:                -0.203
REMARK SMILES COc1cc(-c2cc(=O)c3c(O)cc(O)cc3o2)c(OC)c(OC)c1OC
REMARK SMILES IDX 6 1 7 2 8 3 9 4 10 5 17 6 18 7 16 8 14 9 13 10 11 11 5 12
REMARK SMILES IDX 3 13 4 14 25 15 22 16 19 17 2 18 1 19 26 20 27 21 23 22
REMARK SMILES IDX 24 23 20 24 21 25 12 26 15 28
REMARK H PARENT 12 27 15 29
ROOT
ATOM      1  C   UNL     1      86.611  50.764  45.318  1.00  0.00     0.142 C 
ATOM      2  C   UNL     1      86.716  50.568  46.641  1.00  0.00     0.100 C 
ATOM      3  C   UNL     1      86.321  51.651  47.552  1.00  0.00     0.197 C 
ATOM      4  O   UNL     1      86.390  51.530  48.770  1.00  0.00    -0.289 OA
ATOM      5  C   UNL     1      85.831  52.891  46.941  1.00  0.00     0.107 A 
ATOM      6  C   UNL     1      85.761  52.962  45.551  1.00  0.00     0.146 A 
ATOM      7  O   UNL     1      86.128  51.923  44.733  1.00  0.00    -0.455 OA
ATOM      8  C   UNL     1      85.298  54.124  44.935  1.00  0.00     0.094 A 
ATOM      9  C   UNL     1      84.909  55.207  45.717  1.00  0.00     0.123 A 
ATOM     10  C   UNL     1      84.975  55.151  47.107  1.00  0.00     0.093 A 
ATOM     11  C   UNL     1      85.436  53.987  47.717  1.00  0.00     0.134 A 
ENDROOT
BRANCH   1  12
ATOM     12  C   UNL     1      86.981  49.712  44.350  1.00  0.00     0.067 A 
ATOM     13  C   UNL     1      88.650  48.821  42.807  1.00  0.00     0.165 A 
ATOM     14  C   UNL     1      88.253  49.771  43.752  1.00  0.00     0.066 A 
ATOM     15  C   UNL     1      87.753  47.801  42.443  1.00  0.00     0.207 A 
ATOM     16  C   UNL     1      86.504  47.684  43.071  1.00  0.00     0.208 A 
ATOM     17  C   UNL     1      86.124  48.646  44.019  1.00  0.00     0.175 A 
BRANCH  13  18
ATOM     18  O   UNL     1      89.862  48.818  42.164  1.00  0.00    -0.493 OA
ATOM     19  C   UNL     1      91.032  48.746  42.969  1.00  0.00     0.278 C 
ENDBRANCH  13  18
BRANCH  15  20
ATOM     20  O   UNL     1      88.132  46.892  41.480  1.00  0.00    -0.490 OA
ATOM     21  C   UNL     1      88.797  45.789  42.097  1.00  0.00     0.278 C 
ENDBRANCH  15  20
BRANCH  16  22
ATOM     22  O   UNL     1      85.582  46.715  42.757  1.00  0.00    -0.490 OA
ATOM     23  C   UNL     1      85.600  45.595  43.642  1.00  0.00     0.278 C 
ENDBRANCH  16  22
BRANCH  17  24
ATOM     24  O   UNL     1      84.879  48.579  44.602  1.00  0.00    -0.492 OA
ATOM     25  C   UNL     1      83.921  49.283  43.810  1.00  0.00     0.278 C 
ENDBRANCH  17  24
ENDBRANCH   1  12
BRANCH  11  26
ATOM     26  O   UNL     1      85.479  53.985  49.086  1.00  0.00    -0.507 OA
ATOM     27  H   UNL     1      86.048  53.234  49.373  1.00  0.00     0.293 HD
ENDBRANCH  11  26
BRANCH   9  28
ATOM     28  O   UNL     1      84.463  56.324  45.074  1.00  0.00    -0.508 OA
ATOM     29  H   UNL     1      84.856  56.352  44.184  1.00  0.00     0.293 HD
ENDBRANCH   9  28
TORSDOF 7
ENDMDL
MODEL 3
REMARK VINA RESULT:    -7.672      1.453      7.382
REMARK INTER + INTRA:         -10.566
REMARK INTER:                 -10.288
REMARK INTRA:                  -0.278
REMARK UNBOUND:                -0.203
REMARK SMILES COc1cc(-c2cc(=O)c3c(O)cc(O)cc3o2)c(OC)c(OC)c1OC
REMARK SMILES IDX 6 1 7 2 8 3 9 4 10 5 17 6 18 7 16 8 14 9 13 10 11 11 5 12
REMARK SMILES IDX 3 13 4 14 25 15 22 16 19 17 2 18 1 19 26 20 27 21 23 22
REMARK SMILES IDX 24 23 20 24 21 25 12 26 15 28
REMARK H PARENT 12 27 15 29
ROOT
ATOM      1  C   UNL     1      84.203  50.584  43.898  1.00  0.00     0.142 C 
ATOM      2  C   UNL     1      85.149  49.650  43.718  1.00  0.00     0.100 C 
ATOM      3  C   UNL     1      84.742  48.246  43.572  1.00  0.00     0.197 C 
ATOM      4  O   UNL     1      85.561  47.349  43.401  1.00  0.00    -0.289 OA
ATOM      5  C   UNL     1      83.306  47.958  43.632  1.00  0.00     0.107 A 
ATOM      6  C   UNL     1      82.424  49.022  43.813  1.00  0.00     0.146 A 
ATOM      7  O   UNL     1      82.842  50.323  43.934  1.00  0.00    -0.455 OA
ATOM      8  C   UNL     1      81.051  48.787  43.874  1.00  0.00     0.094 A 
ATOM      9  C   UNL     1      80.572  47.486  43.754  1.00  0.00     0.123 A 
ATOM     10  C   UNL     1      81.441  46.413  43.574  1.00  0.00     0.093 A 
ATOM     11  C   UNL     1      82.812  46.654  43.512  1.00  0.00     0.134 A 
ENDROOT
BRANCH   1  12
ATOM     12  C   UNL     1      84.544  52.013  44.040  1.00  0.00     0.067 A 
ATOM     13  C   UNL     1      84.824  53.931  45.526  1.00  0.00     0.165 A 
ATOM     14  C   UNL     1      84.538  52.577  45.330  1.00  0.00     0.066 A 
ATOM     15  C   UNL     1      85.109  54.739  44.410  1.00  0.00     0.207 A 
ATOM     16  C   UNL     1      85.183  54.187  43.123  1.00  0.00     0.208 A 
ATOM     17  C   UNL     1      84.895  52.825  42.946  1.00  0.00     0.175 A 
BRANCH  13  18
ATOM     18  O   UNL     1      84.821  54.561  46.744  1.00  0.00    -0.493 OA
ATOM     19  C   UNL     1      83.724  54.306  47.612  1.00  0.00     0.278 C 
ENDBRANCH  13  18
BRANCH  15  20
ATOM     20  O   UNL     1      85.349  56.081  44.604  1.00  0.00    -0.490 OA
ATOM     21  C   UNL     1      86.751  56.336  44.516  1.00  0.00     0.278 C 
ENDBRANCH  15  20
BRANCH  16  22
ATOM     22  O   UNL     1      85.451  54.922  41.994  1.00  0.00    -0.490 OA
ATOM     23  C   UNL     1      84.309  55.586  41.454  1.00  0.00     0.278 C 
ENDBRANCH  16  22
BRANCH  17  24
ATOM     24  O   UNL     1      84.906  52.281  41.682  1.00  0.00    -0.492 OA
ATOM     25  C   UNL     1      86.247  52.024  41.262  1.00  0.00     0.278 C 
ENDBRANCH  17  24
ENDBRANCH   1  12
BRANCH  11  26
ATOM     26  O   UNL     1      83.621  45.564  43.333  1.00  0.00    -0.507 OA
ATOM     27  H   UNL     1      83.415  44.910  44.040  1.00  0.00     0.293 HD
ENDBRANCH  11  26
BRANCH   9  28
ATOM     28  O   UNL     1      79.222  47.300  43.819  1.00  0.00    -0.508 OA
ATOM     29  H   UNL     1      78.918  47.519  44.717  1.00  0.00     0.293 HD
ENDBRANCH   9  28
TORSDOF 7
ENDMDL
MODEL 4
REMARK VINA RESULT:    -7.647      1.458      7.427
REMARK INTER + INTRA:         -10.531
REMARK INTER:                 -10.133
REMARK INTRA:                  -0.398
REMARK UNBOUND:                -0.203
REMARK SMILES COc1cc(-c2cc(=O)c3c(O)cc(O)cc3o2)c(OC)c(OC)c1OC
REMARK SMILES IDX 6 1 7 2 8 3 9 4 10 5 17 6 18 7 16 8 14 9 13 10 11 11 5 12
REMARK SMILES IDX 3 13 4 14 25 15 22 16 19 17 2 18 1 19 26 20 27 21 23 22
REMARK SMILES IDX 24 23 20 24 21 25 12 26 15 28
REMARK H PARENT 12 27 15 29
ROOT
ATOM      1  C   UNL     1      84.278  51.184  43.759  1.00  0.00     0.142 C 
ATOM      2  C   UNL     1      85.303  50.330  43.619  1.00  0.00     0.100 C 
ATOM      3  C   UNL     1      85.020  48.893  43.513  1.00  0.00     0.197 C 
ATOM      4  O   UNL     1      85.914  48.065  43.380  1.00  0.00    -0.289 OA
ATOM      5  C   UNL     1      83.612  48.484  43.569  1.00  0.00     0.107 A 
ATOM      6  C   UNL     1      82.641  49.473  43.706  1.00  0.00     0.146 A 
ATOM      7  O   UNL     1      82.944  50.809  43.789  1.00  0.00    -0.455 OA
ATOM      8  C   UNL     1      81.292  49.123  43.761  1.00  0.00     0.094 A 
ATOM      9  C   UNL     1      80.927  47.782  43.678  1.00  0.00     0.123 A 
ATOM     10  C   UNL     1      81.887  46.783  43.541  1.00  0.00     0.093 A 
ATOM     11  C   UNL     1      83.233  47.139  43.486  1.00  0.00     0.134 A 
ENDROOT
BRANCH   1  12
ATOM     12  C   UNL     1      84.494  52.641  43.859  1.00  0.00     0.067 A 
ATOM     13  C   UNL     1      84.799  54.767  42.698  1.00  0.00     0.165 A 
ATOM     14  C   UNL     1      84.566  53.389  42.669  1.00  0.00     0.066 A 
ATOM     15  C   UNL     1      84.976  55.406  43.938  1.00  0.00     0.207 A 
ATOM     16  C   UNL     1      84.846  54.694  45.139  1.00  0.00     0.208 A 
ATOM     17  C   UNL     1      84.610  53.312  45.091  1.00  0.00     0.175 A 
BRANCH  13  18
ATOM     18  O   UNL     1      84.902  55.565  41.586  1.00  0.00    -0.493 OA
ATOM     19  C   UNL     1      84.164  55.182  40.433  1.00  0.00     0.278 C 
ENDBRANCH  13  18
BRANCH  15  20
ATOM     20  O   UNL     1      85.247  56.756  43.959  1.00  0.00    -0.490 OA
ATOM     21  C   UNL     1      86.633  56.964  44.234  1.00  0.00     0.278 C 
ENDBRANCH  15  20
BRANCH  16  22
ATOM     22  O   UNL     1      85.012  55.258  46.381  1.00  0.00    -0.490 OA
ATOM     23  C   UNL     1      83.845  55.911  46.877  1.00  0.00     0.278 C 
ENDBRANCH  16  22
BRANCH  17  24
ATOM     24  O   UNL     1      84.538  52.587  46.259  1.00  0.00    -0.492 OA
ATOM     25  C   UNL     1      85.849  52.251  46.718  1.00  0.00     0.278 C 
ENDBRANCH  17  24
ENDBRANCH   1  12
BRANCH  11  26
ATOM     26  O   UNL     1      84.135  46.118  43.349  1.00  0.00    -0.507 OA
ATOM     27  H   UNL     1      84.645  46.045  44.189  1.00  0.00     0.293 HD
ENDBRANCH  11  26
BRANCH   9  28
ATOM     28  O   UNL     1      79.598  47.483  43.735  1.00  0.00    -0.508 OA
ATOM     29  H   UNL     1      79.087  48.280  43.509  1.00  0.00     0.293 HD
ENDBRANCH   9  28
TORSDOF 7
ENDMDL
MODEL 5
REMARK VINA RESULT:    -7.627      1.473      7.408
REMARK INTER + INTRA:         -10.505
REMARK INTER:                 -10.231
REMARK INTRA:                  -0.274
REMARK UNBOUND:                -0.203
REMARK SMILES COc1cc(-c2cc(=O)c3c(O)cc(O)cc3o2)c(OC)c(OC)c1OC
REMARK SMILES IDX 6 1 7 2 8 3 9 4 10 5 17 6 18 7 16 8 14 9 13 10 11 11 5 12
REMARK SMILES IDX 3 13 4 14 25 15 22 16 19 17 2 18 1 19 26 20 27 21 23 22
REMARK SMILES IDX 24 23 20 24 21 25 12 26 15 28
REMARK H PARENT 12 27 15 29
ROOT
ATOM      1  C   UNL     1      83.771  50.835  43.391  1.00  0.00     0.142 C 
ATOM      2  C   UNL     1      82.466  50.550  43.267  1.00  0.00     0.100 C 
ATOM      3  C   UNL     1      82.039  49.146  43.311  1.00  0.00     0.197 C 
ATOM      4  O   UNL     1      80.861  48.823  43.208  1.00  0.00    -0.289 OA
ATOM      5  C   UNL     1      83.087  48.135  43.491  1.00  0.00     0.107 A 
ATOM      6  C   UNL     1      84.406  48.565  43.617  1.00  0.00     0.146 A 
ATOM      7  O   UNL     1      84.765  49.889  43.584  1.00  0.00    -0.455 OA
ATOM      8  C   UNL     1      85.430  47.633  43.791  1.00  0.00     0.094 A 
ATOM      9  C   UNL     1      85.122  46.277  43.836  1.00  0.00     0.123 A 
ATOM     10  C   UNL     1      83.808  45.833  43.710  1.00  0.00     0.093 A 
ATOM     11  C   UNL     1      82.790  46.768  43.538  1.00  0.00     0.134 A 
ENDROOT
BRANCH   1  12
ATOM     12  C   UNL     1      84.264  52.227  43.367  1.00  0.00     0.067 A 
ATOM     13  C   UNL     1      84.845  54.188  42.033  1.00  0.00     0.165 A 
ATOM     14  C   UNL     1      84.358  52.881  42.124  1.00  0.00     0.066 A 
ATOM     15  C   UNL     1      85.257  54.849  43.205  1.00  0.00     0.207 A 
ATOM     16  C   UNL     1      85.113  54.241  44.461  1.00  0.00     0.208 A 
ATOM     17  C   UNL     1      84.621  52.930  44.532  1.00  0.00     0.175 A 
BRANCH  13  18
ATOM     18  O   UNL     1      84.987  54.889  40.862  1.00  0.00    -0.493 OA
ATOM     19  C   UNL     1      83.865  54.946  39.992  1.00  0.00     0.278 C 
ENDBRANCH  13  18
BRANCH  15  20
ATOM     20  O   UNL     1      85.775  56.121  43.105  1.00  0.00    -0.490 OA
ATOM     21  C   UNL     1      84.720  57.078  43.211  1.00  0.00     0.278 C 
ENDBRANCH  15  20
BRANCH  16  22
ATOM     22  O   UNL     1      85.501  54.830  45.640  1.00  0.00    -0.490 OA
ATOM     23  C   UNL     1      84.438  55.481  46.335  1.00  0.00     0.278 C 
ENDBRANCH  16  22
BRANCH  17  24
ATOM     24  O   UNL     1      84.529  52.297  45.752  1.00  0.00    -0.492 OA
ATOM     25  C   UNL     1      85.810  51.814  46.160  1.00  0.00     0.278 C 
ENDBRANCH  17  24
ENDBRANCH   1  12
BRANCH  11  26
ATOM     26  O   UNL     1      81.517  46.278  43.421  1.00  0.00    -0.507 OA
ATOM     27  H   UNL     1      81.319  46.167  42.463  1.00  0.00     0.293 HD
ENDBRANCH  11  26
BRANCH   9  28
ATOM     28  O   UNL     1      86.152  45.400  44.008  1.00  0.00    -0.508 OA
ATOM     29  H   UNL     1      86.761  45.480  43.253  1.00  0.00     0.293 HD
ENDBRANCH   9  28
TORSDOF 7
ENDMDL
MODEL 6
REMARK VINA RESULT:    -7.584      1.923      3.617
REMARK INTER + INTRA:         -10.447
REMARK INTER:                 -10.023
REMARK INTRA:                  -0.424
REMARK UNBOUND:                -0.203
REMARK SMILES COc1cc(-c2cc(=O)c3c(O)cc(O)cc3o2)c(OC)c(OC)c1OC
REMARK SMILES IDX 6 1 7 2 8 3 9 4 10 5 17 6 18 7 16 8 14 9 13 10 11 11 5 12
REMARK SMILES IDX 3 13 4 14 25 15 22 16 19 17 2 18 1 19 26 20 27 21 23 22
REMARK SMILES IDX 24 23 20 24 21 25 12 26 15 28
REMARK H PARENT 12 27 15 29
ROOT
ATOM      1  C   UNL     1      84.822  52.648  45.041  1.00  0.00     0.142 C 
ATOM      2  C   UNL     1      84.347  52.837  46.281  1.00  0.00     0.100 C 
ATOM      3  C   UNL     1      84.167  54.210  46.771  1.00  0.00     0.197 C 
ATOM      4  O   UNL     1      83.733  54.446  47.893  1.00  0.00    -0.289 OA
ATOM      5  C   UNL     1      84.526  55.297  45.854  1.00  0.00     0.107 A 
ATOM      6  C   UNL     1      84.999  54.965  44.586  1.00  0.00     0.146 A 
ATOM      7  O   UNL     1      85.141  53.669  44.160  1.00  0.00    -0.455 OA
ATOM      8  C   UNL     1      85.348  55.972  43.686  1.00  0.00     0.094 A 
ATOM      9  C   UNL     1      85.220  57.305  44.065  1.00  0.00     0.123 A 
ATOM     10  C   UNL     1      84.749  57.651  45.329  1.00  0.00     0.093 A 
ATOM     11  C   UNL     1      84.401  56.641  46.224  1.00  0.00     0.134 A 
ENDROOT
BRANCH   1  12
ATOM     12  C   UNL     1      85.014  51.293  44.486  1.00  0.00     0.067 A 
ATOM     13  C   UNL     1      83.991  49.254  43.617  1.00  0.00     0.165 A 
ATOM     14  C   UNL     1      83.875  50.552  44.121  1.00  0.00     0.066 A 
ATOM     15  C   UNL     1      85.269  48.680  43.489  1.00  0.00     0.207 A 
ATOM     16  C   UNL     1      86.422  49.421  43.786  1.00  0.00     0.208 A 
ATOM     17  C   UNL     1      86.286  50.724  44.289  1.00  0.00     0.175 A 
BRANCH  13  18
ATOM     18  O   UNL     1      82.932  48.459  43.256  1.00  0.00    -0.493 OA
ATOM     19  C   UNL     1      81.659  49.078  43.129  1.00  0.00     0.278 C 
ENDBRANCH  13  18
BRANCH  15  20
ATOM     20  O   UNL     1      85.375  47.386  43.032  1.00  0.00    -0.490 OA
ATOM     21  C   UNL     1      85.469  46.491  44.142  1.00  0.00     0.278 C 
ENDBRANCH  15  20
BRANCH  16  22
ATOM     22  O   UNL     1      87.696  48.918  43.687  1.00  0.00    -0.490 OA
ATOM     23  C   UNL     1      88.309  49.146  42.419  1.00  0.00     0.278 C 
ENDBRANCH  16  22
BRANCH  17  24
ATOM     24  O   UNL     1      87.406  51.443  44.641  1.00  0.00    -0.492 OA
ATOM     25  C   UNL     1      87.721  51.230  46.018  1.00  0.00     0.278 C 
ENDBRANCH  17  24
ENDBRANCH   1  12
BRANCH  11  26
ATOM     26  O   UNL     1      83.943  57.037  47.452  1.00  0.00    -0.507 OA
ATOM     27  H   UNL     1      84.662  57.537  47.900  1.00  0.00     0.293 HD
ENDBRANCH  11  26
BRANCH   9  28
ATOM     28  O   UNL     1      85.572  58.258  43.155  1.00  0.00    -0.508 OA
ATOM     29  H   UNL     1      86.016  58.988  43.621  1.00  0.00     0.293 HD
ENDBRANCH   9  28
TORSDOF 7
ENDMDL
MODEL 7
REMARK VINA RESULT:    -7.520      2.045      3.767
REMARK INTER + INTRA:         -10.360
REMARK INTER:                 -10.157
REMARK INTRA:                  -0.203
REMARK UNBOUND:                -0.203
REMARK SMILES COc1cc(-c2cc(=O)c3c(O)cc(O)cc3o2)c(OC)c(OC)c1OC
REMARK SMILES IDX 6 1 7 2 8 3 9 4 10 5 17 6 18 7 16 8 14 9 13 10 11 11 5 12
REMARK SMILES IDX 3 13 4 14 25 15 22 16 19 17 2 18 1 19 26 20 27 21 23 22
REMARK SMILES IDX 24 23 20 24 21 25 12 26 15 28
REMARK H PARENT 12 27 15 29
ROOT
ATOM      1  C   UNL     1      86.117  50.897  43.204  1.00  0.00     0.142 C 
ATOM      2  C   UNL     1      86.099  51.663  42.103  1.00  0.00     0.100 C 
ATOM      3  C   UNL     1      86.126  53.124  42.254  1.00  0.00     0.197 C 
ATOM      4  O   UNL     1      86.115  53.875  41.285  1.00  0.00    -0.289 OA
ATOM      5  C   UNL     1      86.173  53.653  43.622  1.00  0.00     0.107 A 
ATOM      6  C   UNL     1      86.199  52.747  44.680  1.00  0.00     0.146 A 
ATOM      7  O   UNL     1      86.185  51.387  44.499  1.00  0.00    -0.455 OA
ATOM      8  C   UNL     1      86.245  53.212  45.995  1.00  0.00     0.094 A 
ATOM      9  C   UNL     1      86.265  54.583  46.237  1.00  0.00     0.123 A 
ATOM     10  C   UNL     1      86.239  55.499  45.188  1.00  0.00     0.093 A 
ATOM     11  C   UNL     1      86.194  55.028  43.878  1.00  0.00     0.134 A 
ENDROOT
BRANCH   1  12
ATOM     12  C   UNL     1      86.103  49.423  43.120  1.00  0.00     0.067 A 
ATOM     13  C   UNL     1      87.147  47.395  42.249  1.00  0.00     0.165 A 
ATOM     14  C   UNL     1      87.123  48.785  42.390  1.00  0.00     0.066 A 
ATOM     15  C   UNL     1      86.125  46.629  42.839  1.00  0.00     0.207 A 
ATOM     16  C   UNL     1      85.134  47.236  43.624  1.00  0.00     0.208 A 
ATOM     17  C   UNL     1      85.127  48.633  43.756  1.00  0.00     0.175 A 
BRANCH  13  18
ATOM     18  O   UNL     1      88.092  46.698  41.540  1.00  0.00    -0.493 OA
ATOM     19  C   UNL     1      89.456  46.904  41.885  1.00  0.00     0.278 C 
ENDBRANCH  13  18
BRANCH  15  20
ATOM     20  O   UNL     1      86.130  45.263  42.662  1.00  0.00    -0.490 OA
ATOM     21  C   UNL     1      86.701  44.633  43.810  1.00  0.00     0.278 C 
ENDBRANCH  15  20
BRANCH  16  22
ATOM     22  O   UNL     1      84.107  46.545  44.222  1.00  0.00    -0.490 OA
ATOM     23  C   UNL     1      83.067  46.166  43.321  1.00  0.00     0.278 C 
ENDBRANCH  16  22
BRANCH  17  24
ATOM     24  O   UNL     1      84.127  49.249  44.474  1.00  0.00    -0.492 OA
ATOM     25  C   UNL     1      83.097  49.709  43.599  1.00  0.00     0.278 C 
ENDBRANCH  17  24
ENDBRANCH   1  12
BRANCH  11  26
ATOM     26  O   UNL     1      86.171  55.971  42.885  1.00  0.00    -0.507 OA
ATOM     27  H   UNL     1      86.944  56.567  43.011  1.00  0.00     0.293 HD
ENDBRANCH  11  26
BRANCH   9  28
ATOM     28  O   UNL     1      86.311  54.995  47.536  1.00  0.00    -0.508 OA
ATOM     29  H   UNL     1      86.342  55.967  47.556  1.00  0.00     0.293 HD
ENDBRANCH   9  28
TORSDOF 7
ENDMDL
MODEL 8
REMARK VINA RESULT:    -7.490      1.464      7.441
REMARK INTER + INTRA:         -10.320
REMARK INTER:                  -9.882
REMARK INTRA:                  -0.439
REMARK UNBOUND:                -0.203
REMARK SMILES COc1cc(-c2cc(=O)c3c(O)cc(O)cc3o2)c(OC)c(OC)c1OC
REMARK SMILES IDX 6 1 7 2 8 3 9 4 10 5 17 6 18 7 16 8 14 9 13 10 11 11 5 12
REMARK SMILES IDX 3 13 4 14 25 15 22 16 19 17 2 18 1 19 26 20 27 21 23 22
REMARK SMILES IDX 24 23 20 24 21 25 12 26 15 28
REMARK H PARENT 12 27 15 29
ROOT
ATOM      1  C   UNL     1      83.903  50.611  43.846  1.00  0.00     0.142 C 
ATOM      2  C   UNL     1      82.617  50.303  43.623  1.00  0.00     0.100 C 
ATOM      3  C   UNL     1      82.236  48.890  43.501  1.00  0.00     0.197 C 
ATOM      4  O   UNL     1      81.076  48.547  43.301  1.00  0.00    -0.289 OA
ATOM      5  C   UNL     1      83.307  47.897  43.634  1.00  0.00     0.107 A 
ATOM      6  C   UNL     1      84.603  48.349  43.876  1.00  0.00     0.146 A 
ATOM      7  O   UNL     1      84.918  49.679  43.997  1.00  0.00    -0.455 OA
ATOM      8  C   UNL     1      85.647  47.433  44.010  1.00  0.00     0.094 A 
ATOM      9  C   UNL     1      85.383  46.071  43.900  1.00  0.00     0.123 A 
ATOM     10  C   UNL     1      84.093  45.606  43.658  1.00  0.00     0.093 A 
ATOM     11  C   UNL     1      83.054  46.524  43.526  1.00  0.00     0.134 A 
ENDROOT
BRANCH   1  12
ATOM     12  C   UNL     1      84.349  52.011  43.991  1.00  0.00     0.067 A 
ATOM     13  C   UNL     1      84.741  53.911  45.474  1.00  0.00     0.165 A 
ATOM     14  C   UNL     1      84.358  52.581  45.277  1.00  0.00     0.066 A 
ATOM     15  C   UNL     1      85.109  54.689  44.362  1.00  0.00     0.207 A 
ATOM     16  C   UNL     1      85.169  54.126  43.079  1.00  0.00     0.208 A 
ATOM     17  C   UNL     1      84.783  52.789  42.901  1.00  0.00     0.175 A 
BRANCH  13  18
ATOM     18  O   UNL     1      84.760  54.546  46.690  1.00  0.00    -0.493 OA
ATOM     19  C   UNL     1      85.609  54.012  47.697  1.00  0.00     0.278 C 
ENDBRANCH  13  18
BRANCH  15  20
ATOM     20  O   UNL     1      85.445  56.010  44.556  1.00  0.00    -0.490 OA
ATOM     21  C   UNL     1      86.863  56.163  44.468  1.00  0.00     0.278 C 
ENDBRANCH  15  20
BRANCH  16  22
ATOM     22  O   UNL     1      85.515  54.833  41.953  1.00  0.00    -0.490 OA
ATOM     23  C   UNL     1      84.418  55.506  41.335  1.00  0.00     0.278 C 
ENDBRANCH  16  22
BRANCH  17  24
ATOM     24  O   UNL     1      84.779  52.239  41.639  1.00  0.00    -0.492 OA
ATOM     25  C   UNL     1      86.085  51.776  41.294  1.00  0.00     0.278 C 
ENDBRANCH  17  24
ENDBRANCH   1  12
BRANCH  11  26
ATOM     26  O   UNL     1      81.806  46.013  43.290  1.00  0.00    -0.507 OA
ATOM     27  H   UNL     1      81.307  46.020  44.138  1.00  0.00     0.293 HD
ENDBRANCH  11  26
BRANCH   9  28
ATOM     28  O   UNL     1      86.432  45.211  44.038  1.00  0.00    -0.508 OA
ATOM     29  H   UNL     1      86.817  45.042  43.161  1.00  0.00     0.293 HD
ENDBRANCH   9  28
TORSDOF 7
ENDMDL
MODEL 9
REMARK VINA RESULT:    -7.434      1.812      2.518
REMARK INTER + INTRA:         -10.243
REMARK INTER:                  -9.866
REMARK INTRA:                  -0.377
REMARK UNBOUND:                -0.203
REMARK SMILES COc1cc(-c2cc(=O)c3c(O)cc(O)cc3o2)c(OC)c(OC)c1OC
REMARK SMILES IDX 6 1 7 2 8 3 9 4 10 5 17 6 18 7 16 8 14 9 13 10 11 11 5 12
REMARK SMILES IDX 3 13 4 14 25 15 22 16 19 17 2 18 1 19 26 20 27 21 23 22
REMARK SMILES IDX 24 23 20 24 21 25 12 26 15 28
REMARK H PARENT 12 27 15 29
ROOT
ATOM      1  C   UNL     1      84.806  52.017  44.182  1.00  0.00     0.142 C 
ATOM      2  C   UNL     1      84.897  52.965  43.238  1.00  0.00     0.100 C 
ATOM      3  C   UNL     1      84.783  54.375  43.635  1.00  0.00     0.197 C 
ATOM      4  O   UNL     1      84.862  55.286  42.818  1.00  0.00    -0.289 OA
ATOM      5  C   UNL     1      84.575  54.652  45.060  1.00  0.00     0.107 A 
ATOM      6  C   UNL     1      84.510  53.574  45.941  1.00  0.00     0.146 A 
ATOM      7  O   UNL     1      84.633  52.270  45.533  1.00  0.00    -0.455 OA
ATOM      8  C   UNL     1      84.314  53.798  47.304  1.00  0.00     0.094 A 
ATOM      9  C   UNL     1      84.186  55.102  47.773  1.00  0.00     0.123 A 
ATOM     10  C   UNL     1      84.249  56.188  46.904  1.00  0.00     0.093 A 
ATOM     11  C   UNL     1      84.445  55.959  45.544  1.00  0.00     0.134 A 
ENDROOT
BRANCH   1  12
ATOM     12  C   UNL     1      84.924  50.583  43.850  1.00  0.00     0.067 A 
ATOM     13  C   UNL     1      83.804  48.432  43.559  1.00  0.00     0.165 A 
ATOM     14  C   UNL     1      83.754  49.801  43.837  1.00  0.00     0.066 A 
ATOM     15  C   UNL     1      85.050  47.831  43.302  1.00  0.00     0.207 A 
ATOM     16  C   UNL     1      86.221  48.600  43.247  1.00  0.00     0.208 A 
ATOM     17  C   UNL     1      86.150  49.973  43.526  1.00  0.00     0.175 A 
BRANCH  13  18
ATOM     18  O   UNL     1      82.716  47.597  43.545  1.00  0.00    -0.493 OA
ATOM     19  C   UNL     1      81.432  48.190  43.691  1.00  0.00     0.278 C 
ENDBRANCH  13  18
BRANCH  15  20
ATOM     20  O   UNL     1      85.099  46.475  43.070  1.00  0.00    -0.490 OA
ATOM     21  C   UNL     1      85.433  45.793  44.280  1.00  0.00     0.278 C 
ENDBRANCH  15  20
BRANCH  16  22
ATOM     22  O   UNL     1      87.467  48.073  43.006  1.00  0.00    -0.490 OA
ATOM     23  C   UNL     1      87.821  48.038  41.624  1.00  0.00     0.278 C 
ENDBRANCH  16  22
BRANCH  17  24
ATOM     24  O   UNL     1      87.300  50.732  43.534  1.00  0.00    -0.492 OA
ATOM     25  C   UNL     1      87.885  50.735  44.837  1.00  0.00     0.278 C 
ENDBRANCH  17  24
ENDBRANCH   1  12
BRANCH  11  26
ATOM     26  O   UNL     1      84.501  57.062  44.734  1.00  0.00    -0.507 OA
ATOM     27  H   UNL     1      85.415  57.424  44.773  1.00  0.00     0.293 HD
ENDBRANCH  11  26
BRANCH   9  28
ATOM     28  O   UNL     1      83.997  55.277  49.112  1.00  0.00    -0.508 OA
ATOM     29  H   UNL     1      84.357  56.143  49.369  1.00  0.00     0.293 HD
ENDBRANCH   9  28
TORSDOF 7
ENDMDL
