MODEL 1
REMARK VINA RESULT:    -7.940      0.000      0.000
REMARK INTER + INTRA:          -9.462
REMARK INTER:                  -9.131
REMARK INTRA:                  -0.331
REMARK UNBOUND:                -0.361
REMARK SMILES COc1cc(O)c2c(c1)OC(c1ccccc1)CC2=O
REMARK SMILES IDX 3 1 9 2 8 3 10 4 11 5 18 6 19 7 20 8 7 9 5 10 4 11 2 12 1 13
REMARK SMILES IDX 6 14 12 16 13 17 17 18 14 19 16 20 15 21
REMARK H PARENT 6 15
ROOT
ATOM      1  C   UNL     1      84.171  52.354  42.020  1.00  0.00     0.126 A 
ATOM      2  C   UNL     1      85.135  51.423  42.421  1.00  0.00     0.093 A 
ATOM      3  C   UNL     1      86.367  51.354  41.772  1.00  0.00     0.138 A 
ATOM      4  O   UNL     1      87.249  50.408  42.224  1.00  0.00    -0.484 OA
ATOM      5  C   UNL     1      88.219  50.024  41.235  1.00  0.00     0.211 C 
ATOM      6  C   UNL     1      88.984  51.238  40.724  1.00  0.00     0.131 C 
ATOM      7  C   UNL     1      87.994  52.192  40.122  1.00  0.00     0.174 C 
ATOM      8  O   UNL     1      88.272  52.951  39.197  1.00  0.00    -0.294 OA
ATOM      9  C   UNL     1      86.655  52.241  40.737  1.00  0.00     0.102 A 
ATOM     10  C   UNL     1      85.694  53.172  40.332  1.00  0.00     0.133 A 
ATOM     11  C   UNL     1      84.454  53.227  40.967  1.00  0.00     0.093 A 
ENDROOT
BRANCH   1  12
ATOM     12  O   UNL     1      83.004  52.308  42.733  1.00  0.00    -0.496 OA
ATOM     13  C   UNL     1      81.981  51.452  42.237  1.00  0.00     0.278 C 
ENDBRANCH   1  12
BRANCH  10  14
ATOM     14  O   UNL     1      85.908  54.070  39.320  1.00  0.00    -0.507 OA
ATOM     15  H   UNL     1      86.608  54.698  39.611  1.00  0.00     0.293 HD
ENDBRANCH  10  14
BRANCH   5  16
ATOM     16  C   UNL     1      89.173  49.014  41.845  1.00  0.00    -0.007 A 
ATOM     17  C   UNL     1      90.198  49.446  42.702  1.00  0.00     0.007 A 
ATOM     18  C   UNL     1      89.034  47.638  41.605  1.00  0.00     0.007 A 
ATOM     19  C   UNL     1      91.066  48.526  43.293  1.00  0.00     0.000 A 
ATOM     20  C   UNL     1      89.903  46.720  42.196  1.00  0.00     0.000 A 
ATOM     21  C   UNL     1      90.919  47.164  43.040  1.00  0.00     0.000 A 
ENDBRANCH   5  16
TORSDOF 3
ENDMDL
MODEL 2
REMARK VINA RESULT:    -7.773      4.199      8.100
REMARK INTER + INTRA:          -9.270
REMARK INTER:                  -8.908
REMARK INTRA:                  -0.363
REMARK UNBOUND:                -0.361
REMARK SMILES COc1cc(O)c2c(c1)OC(c1ccccc1)CC2=O
REMARK SMILES IDX 3 1 9 2 8 3 10 4 11 5 18 6 19 7 20 8 7 9 5 10 4 11 2 12 1 13
REMARK SMILES IDX 6 14 12 16 13 17 17 18 14 19 16 20 15 21
REMARK H PARENT 6 15
ROOT
ATOM      1  C   UNL     1      88.472  47.559  41.805  1.00  0.00     0.126 A 
ATOM      2  C   UNL     1      87.184  47.938  42.198  1.00  0.00     0.093 A 
ATOM      3  C   UNL     1      86.315  47.010  42.770  1.00  0.00     0.138 A 
ATOM      4  O   UNL     1      85.070  47.466  43.118  1.00  0.00    -0.484 OA
ATOM      5  C   UNL     1      84.086  46.420  43.183  1.00  0.00     0.211 C 
ATOM      6  C   UNL     1      84.520  45.324  44.147  1.00  0.00     0.131 C 
ATOM      7  C   UNL     1      85.825  44.764  43.658  1.00  0.00     0.174 C 
ATOM      8  O   UNL     1      86.168  43.599  43.846  1.00  0.00    -0.294 OA
ATOM      9  C   UNL     1      86.741  45.701  42.983  1.00  0.00     0.102 A 
ATOM     10  C   UNL     1      88.027  45.317  42.590  1.00  0.00     0.133 A 
ATOM     11  C   UNL     1      88.889  46.240  41.999  1.00  0.00     0.093 A 
ENDROOT
BRANCH   1  12
ATOM     12  O   UNL     1      89.217  48.563  41.249  1.00  0.00    -0.496 OA
ATOM     13  C   UNL     1      90.489  48.820  41.834  1.00  0.00     0.278 C 
ENDBRANCH   1  12
BRANCH  10  14
ATOM     14  O   UNL     1      88.511  44.048  42.766  1.00  0.00    -0.507 OA
ATOM     15  H   UNL     1      88.608  43.887  43.733  1.00  0.00     0.293 HD
ENDBRANCH  10  14
BRANCH   5  16
ATOM     16  C   UNL     1      82.760  47.016  43.620  1.00  0.00    -0.007 A 
ATOM     17  C   UNL     1      81.810  46.211  44.269  1.00  0.00     0.007 A 
ATOM     18  C   UNL     1      82.470  48.376  43.425  1.00  0.00     0.007 A 
ATOM     19  C   UNL     1      80.598  46.752  44.702  1.00  0.00     0.000 A 
ATOM     20  C   UNL     1      81.257  48.913  43.858  1.00  0.00     0.000 A 
ATOM     21  C   UNL     1      80.321  48.102  44.496  1.00  0.00     0.000 A 
ENDBRANCH   5  16
TORSDOF 3
ENDMDL
MODEL 3
REMARK VINA RESULT:    -7.752      4.322      6.544
REMARK INTER + INTRA:          -9.246
REMARK INTER:                  -8.854
REMARK INTRA:                  -0.392
REMARK UNBOUND:                -0.361
REMARK SMILES COc1cc(O)c2c(c1)OC(c1ccccc1)CC2=O
REMARK SMILES IDX 3 1 9 2 8 3 10 4 11 5 18 6 19 7 20 8 7 9 5 10 4 11 2 12 1 13
REMARK SMILES IDX 6 14 12 16 13 17 17 18 14 19 16 20 15 21
REMARK H PARENT 6 15
ROOT
ATOM      1  C   UNL     1      81.029  50.495  42.723  1.00  0.00     0.126 A 
ATOM      2  C   UNL     1      82.183  49.724  42.548  1.00  0.00     0.093 A 
ATOM      3  C   UNL     1      82.270  48.444  43.095  1.00  0.00     0.138 A 
ATOM      4  O   UNL     1      83.439  47.762  42.881  1.00  0.00    -0.484 OA
ATOM      5  C   UNL     1      83.684  46.742  43.865  1.00  0.00     0.211 C 
ATOM      6  C   UNL     1      82.521  45.762  43.933  1.00  0.00     0.131 C 
ATOM      7  C   UNL     1      81.284  46.531  44.295  1.00  0.00     0.174 C 
ATOM      8  O   UNL     1      80.351  46.043  44.929  1.00  0.00    -0.294 OA
ATOM      9  C   UNL     1      81.188  47.915  43.794  1.00  0.00     0.102 A 
ATOM     10  C   UNL     1      80.034  48.683  43.974  1.00  0.00     0.133 A 
ATOM     11  C   UNL     1      79.954  49.971  43.444  1.00  0.00     0.093 A 
ENDROOT
BRANCH   1  12
ATOM     12  O   UNL     1      81.079  51.734  42.144  1.00  0.00    -0.496 OA
ATOM     13  C   UNL     1      82.313  52.116  41.549  1.00  0.00     0.278 C 
ENDBRANCH   1  12
BRANCH  10  14
ATOM     14  O   UNL     1      78.934  48.228  44.653  1.00  0.00    -0.507 OA
ATOM     15  H   UNL     1      78.131  48.569  44.198  1.00  0.00     0.293 HD
ENDBRANCH  10  14
BRANCH   5  16
ATOM     16  C   UNL     1      84.970  46.017  43.514  1.00  0.00    -0.007 A 
ATOM     17  C   UNL     1      85.899  46.616  42.650  1.00  0.00     0.007 A 
ATOM     18  C   UNL     1      85.277  44.764  44.069  1.00  0.00     0.007 A 
ATOM     19  C   UNL     1      87.099  45.974  42.340  1.00  0.00     0.000 A 
ATOM     20  C   UNL     1      86.477  44.123  43.756  1.00  0.00     0.000 A 
ATOM     21  C   UNL     1      87.388  44.727  42.893  1.00  0.00     0.000 A 
ENDBRANCH   5  16
TORSDOF 3
ENDMDL
MODEL 4
REMARK VINA RESULT:    -7.696      3.825      6.535
REMARK INTER + INTRA:          -9.182
REMARK INTER:                  -8.827
REMARK INTRA:                  -0.355
REMARK UNBOUND:                -0.361
REMARK SMILES COc1cc(O)c2c(c1)OC(c1ccccc1)CC2=O
REMARK SMILES IDX 3 1 9 2 8 3 10 4 11 5 18 6 19 7 20 8 7 9 5 10 4 11 2 12 1 13
REMARK SMILES IDX 6 14 12 16 13 17 17 18 14 19 16 20 15 21
REMARK H PARENT 6 15
ROOT
ATOM      1  C   UNL     1      89.039  49.913  42.772  1.00  0.00     0.126 A 
ATOM      2  C   UNL     1      88.234  50.126  43.897  1.00  0.00     0.093 A 
ATOM      3  C   UNL     1      87.534  51.322  44.052  1.00  0.00     0.138 A 
ATOM      4  O   UNL     1      86.776  51.449  45.186  1.00  0.00    -0.484 OA
ATOM      5  C   UNL     1      86.534  52.818  45.552  1.00  0.00     0.211 C 
ATOM      6  C   UNL     1      85.878  53.578  44.407  1.00  0.00     0.131 C 
ATOM      7  C   UNL     1      86.799  53.523  43.223  1.00  0.00     0.174 C 
ATOM      8  O   UNL     1      86.857  54.412  42.376  1.00  0.00    -0.294 OA
ATOM      9  C   UNL     1      87.610  52.302  43.065  1.00  0.00     0.102 A 
ATOM     10  C   UNL     1      88.415  52.095  41.941  1.00  0.00     0.133 A 
ATOM     11  C   UNL     1      89.131  50.907  41.795  1.00  0.00     0.093 A 
ENDROOT
BRANCH   1  12
ATOM     12  O   UNL     1      89.678  48.704  42.750  1.00  0.00    -0.496 OA
ATOM     13  C   UNL     1      90.964  48.644  43.356  1.00  0.00     0.278 C 
ENDBRANCH   1  12
BRANCH  10  14
ATOM     14  O   UNL     1      88.539  53.015  40.934  1.00  0.00    -0.507 OA
ATOM     15  H   UNL     1      88.179  52.617  40.109  1.00  0.00     0.293 HD
ENDBRANCH  10  14
BRANCH   5  16
ATOM     16  C   UNL     1      85.651  52.851  46.785  1.00  0.00    -0.007 A 
ATOM     17  C   UNL     1      86.030  52.143  47.937  1.00  0.00     0.007 A 
ATOM     18  C   UNL     1      84.471  53.611  46.821  1.00  0.00     0.007 A 
ATOM     19  C   UNL     1      85.242  52.186  49.089  1.00  0.00     0.000 A 
ATOM     20  C   UNL     1      83.685  53.651  47.973  1.00  0.00     0.000 A 
ATOM     21  C   UNL     1      84.070  52.939  49.107  1.00  0.00     0.000 A 
ENDBRANCH   5  16
TORSDOF 3
ENDMDL
MODEL 5
REMARK VINA RESULT:    -7.688      3.982      5.251
REMARK INTER + INTRA:          -9.173
REMARK INTER:                  -8.793
REMARK INTRA:                  -0.380
REMARK UNBOUND:                -0.361
REMARK SMILES COc1cc(O)c2c(c1)OC(c1ccccc1)CC2=O
REMARK SMILES IDX 3 1 9 2 8 3 10 4 11 5 18 6 19 7 20 8 7 9 5 10 4 11 2 12 1 13
REMARK SMILES IDX 6 14 12 16 13 17 17 18 14 19 16 20 15 21
REMARK H PARENT 6 15
ROOT
ATOM      1  C   UNL     1      81.027  47.958  43.734  1.00  0.00     0.126 A 
ATOM      2  C   UNL     1      82.054  47.007  43.727  1.00  0.00     0.093 A 
ATOM      3  C   UNL     1      83.386  47.403  43.624  1.00  0.00     0.138 A 
ATOM      4  O   UNL     1      84.326  46.406  43.618  1.00  0.00    -0.484 OA
ATOM      5  C   UNL     1      85.560  46.799  42.992  1.00  0.00     0.211 C 
ATOM      6  C   UNL     1      86.134  48.043  43.656  1.00  0.00     0.131 C 
ATOM      7  C   UNL     1      85.125  49.147  43.529  1.00  0.00     0.174 C 
ATOM      8  O   UNL     1      85.435  50.334  43.457  1.00  0.00    -0.294 OA
ATOM      9  C   UNL     1      83.703  48.758  43.561  1.00  0.00     0.102 A 
ATOM     10  C   UNL     1      82.681  49.712  43.565  1.00  0.00     0.133 A 
ATOM     11  C   UNL     1      81.346  49.315  43.647  1.00  0.00     0.093 A 
ENDROOT
BRANCH   1  12
ATOM     12  O   UNL     1      79.766  47.434  43.828  1.00  0.00    -0.496 OA
ATOM     13  C   UNL     1      79.635  46.194  44.513  1.00  0.00     0.278 C 
ENDBRANCH   1  12
BRANCH  10  14
ATOM     14  O   UNL     1      82.919  51.059  43.501  1.00  0.00    -0.507 OA
ATOM     15  H   UNL     1      83.565  51.290  44.207  1.00  0.00     0.293 HD
ENDBRANCH  10  14
BRANCH   5  16
ATOM     16  C   UNL     1      86.545  45.648  43.077  1.00  0.00    -0.007 A 
ATOM     17  C   UNL     1      87.788  45.741  42.432  1.00  0.00     0.007 A 
ATOM     18  C   UNL     1      86.260  44.495  43.826  1.00  0.00     0.007 A 
ATOM     19  C   UNL     1      88.717  44.702  42.525  1.00  0.00     0.000 A 
ATOM     20  C   UNL     1      87.189  43.458  43.916  1.00  0.00     0.000 A 
ATOM     21  C   UNL     1      88.417  43.561  43.266  1.00  0.00     0.000 A 
ENDBRANCH   5  16
TORSDOF 3
ENDMDL
MODEL 6
REMARK VINA RESULT:    -7.617      4.844      8.172
REMARK INTER + INTRA:          -9.092
REMARK INTER:                  -8.730
REMARK INTRA:                  -0.362
REMARK UNBOUND:                -0.361
REMARK SMILES COc1cc(O)c2c(c1)OC(c1ccccc1)CC2=O
REMARK SMILES IDX 3 1 9 2 8 3 10 4 11 5 18 6 19 7 20 8 7 9 5 10 4 11 2 12 1 13
REMARK SMILES IDX 6 14 12 16 13 17 17 18 14 19 16 20 15 21
REMARK H PARENT 6 15
ROOT
ATOM      1  C   UNL     1      87.717  50.399  44.196  1.00  0.00     0.126 A 
ATOM      2  C   UNL     1      87.459  51.771  44.091  1.00  0.00     0.093 A 
ATOM      3  C   UNL     1      86.865  52.464  45.144  1.00  0.00     0.138 A 
ATOM      4  O   UNL     1      86.643  53.802  44.954  1.00  0.00    -0.484 OA
ATOM      5  C   UNL     1      85.595  54.324  45.788  1.00  0.00     0.211 C 
ATOM      6  C   UNL     1      85.886  54.055  47.258  1.00  0.00     0.131 C 
ATOM      7  C   UNL     1      85.996  52.571  47.448  1.00  0.00     0.174 C 
ATOM      8  O   UNL     1      85.696  52.005  48.497  1.00  0.00    -0.294 OA
ATOM      9  C   UNL     1      86.554  51.794  46.326  1.00  0.00     0.102 A 
ATOM     10  C   UNL     1      86.807  50.424  46.435  1.00  0.00     0.133 A 
ATOM     11  C   UNL     1      87.382  49.726  45.373  1.00  0.00     0.093 A 
ENDROOT
BRANCH   1  12
ATOM     12  O   UNL     1      88.292  49.841  43.087  1.00  0.00    -0.496 OA
ATOM     13  C   UNL     1      89.554  49.208  43.267  1.00  0.00     0.278 C 
ENDBRANCH   1  12
BRANCH  10  14
ATOM     14  O   UNL     1      86.523  49.701  47.563  1.00  0.00    -0.507 OA
ATOM     15  H   UNL     1      86.242  50.330  48.267  1.00  0.00     0.293 HD
ENDBRANCH  10  14
BRANCH   5  16
ATOM     16  C   UNL     1      85.460  55.814  45.537  1.00  0.00    -0.007 A 
ATOM     17  C   UNL     1      84.662  56.598  46.386  1.00  0.00     0.007 A 
ATOM     18  C   UNL     1      86.150  56.446  44.490  1.00  0.00     0.007 A 
ATOM     19  C   UNL     1      84.550  57.976  46.184  1.00  0.00     0.000 A 
ATOM     20  C   UNL     1      86.035  57.822  44.290  1.00  0.00     0.000 A 
ATOM     21  C   UNL     1      85.236  58.587  45.137  1.00  0.00     0.000 A 
ENDBRANCH   5  16
TORSDOF 3
ENDMDL
MODEL 7
REMARK VINA RESULT:    -7.559      4.007      4.779
REMARK INTER + INTRA:          -9.025
REMARK INTER:                  -8.659
REMARK INTRA:                  -0.366
REMARK UNBOUND:                -0.361
REMARK SMILES COc1cc(O)c2c(c1)OC(c1ccccc1)CC2=O
REMARK SMILES IDX 3 1 9 2 8 3 10 4 11 5 18 6 19 7 20 8 7 9 5 10 4 11 2 12 1 13
REMARK SMILES IDX 6 14 12 16 13 17 17 18 14 19 16 20 15 21
REMARK H PARENT 6 15
ROOT
ATOM      1  C   UNL     1      85.019  54.419  47.418  1.00  0.00     0.126 A 
ATOM      2  C   UNL     1      85.921  53.551  46.791  1.00  0.00     0.093 A 
ATOM      3  C   UNL     1      86.219  53.696  45.437  1.00  0.00     0.138 A 
ATOM      4  O   UNL     1      87.106  52.800  44.902  1.00  0.00    -0.484 OA
ATOM      5  C   UNL     1      86.967  52.649  43.479  1.00  0.00     0.211 C 
ATOM      6  C   UNL     1      87.105  53.992  42.774  1.00  0.00     0.131 C 
ATOM      7  C   UNL     1      86.035  54.905  43.297  1.00  0.00     0.174 C 
ATOM      8  O   UNL     1      85.530  55.800  42.624  1.00  0.00    -0.294 OA
ATOM      9  C   UNL     1      85.641  54.733  44.707  1.00  0.00     0.102 A 
ATOM     10  C   UNL     1      84.738  55.601  45.329  1.00  0.00     0.133 A 
ATOM     11  C   UNL     1      84.424  55.443  46.679  1.00  0.00     0.093 A 
ENDROOT
BRANCH   1  12
ATOM     12  O   UNL     1      84.809  54.159  48.745  1.00  0.00    -0.496 OA
ATOM     13  C   UNL     1      84.062  52.990  49.060  1.00  0.00     0.278 C 
ENDBRANCH   1  12
BRANCH  10  14
ATOM     14  O   UNL     1      84.130  56.638  44.673  1.00  0.00    -0.507 OA
ATOM     15  H   UNL     1      83.991  56.368  43.736  1.00  0.00     0.293 HD
ENDBRANCH  10  14
BRANCH   5  16
ATOM     16  C   UNL     1      88.019  51.676  42.980  1.00  0.00    -0.007 A 
ATOM     17  C   UNL     1      88.823  52.017  41.881  1.00  0.00     0.007 A 
ATOM     18  C   UNL     1      88.240  50.446  43.619  1.00  0.00     0.007 A 
ATOM     19  C   UNL     1      89.814  51.144  41.427  1.00  0.00     0.000 A 
ATOM     20  C   UNL     1      89.230  49.575  43.163  1.00  0.00     0.000 A 
ATOM     21  C   UNL     1      90.017  49.924  42.068  1.00  0.00     0.000 A 
ENDBRANCH   5  16
TORSDOF 3
ENDMDL
MODEL 8
REMARK VINA RESULT:    -7.454      4.457      5.799
REMARK INTER + INTRA:          -8.904
REMARK INTER:                  -8.534
REMARK INTRA:                  -0.370
REMARK UNBOUND:                -0.361
REMARK SMILES COc1cc(O)c2c(c1)OC(c1ccccc1)CC2=O
REMARK SMILES IDX 3 1 9 2 8 3 10 4 11 5 18 6 19 7 20 8 7 9 5 10 4 11 2 12 1 13
REMARK SMILES IDX 6 14 12 16 13 17 17 18 14 19 16 20 15 21
REMARK H PARENT 6 15
ROOT
ATOM      1  C   UNL     1      85.584  54.801  47.145  1.00  0.00     0.126 A 
ATOM      2  C   UNL     1      86.146  54.291  45.970  1.00  0.00     0.093 A 
ATOM      3  C   UNL     1      86.512  52.949  45.882  1.00  0.00     0.138 A 
ATOM      4  O   UNL     1      87.062  52.537  44.696  1.00  0.00    -0.484 OA
ATOM      5  C   UNL     1      87.881  51.363  44.833  1.00  0.00     0.211 C 
ATOM      6  C   UNL     1      87.092  50.220  45.459  1.00  0.00     0.131 C 
ATOM      7  C   UNL     1      86.615  50.668  46.810  1.00  0.00     0.174 C 
ATOM      8  O   UNL     1      86.442  49.896  47.750  1.00  0.00    -0.294 OA
ATOM      9  C   UNL     1      86.287  52.098  46.961  1.00  0.00     0.102 A 
ATOM     10  C   UNL     1      85.727  52.602  48.139  1.00  0.00     0.133 A 
ATOM     11  C   UNL     1      85.380  53.950  48.234  1.00  0.00     0.093 A 
ENDROOT
BRANCH   1  12
ATOM     12  O   UNL     1      85.281  56.134  47.101  1.00  0.00    -0.496 OA
ATOM     13  C   UNL     1      84.041  56.493  46.504  1.00  0.00     0.278 C 
ENDBRANCH   1  12
BRANCH  10  14
ATOM     14  O   UNL     1      85.481  51.825  49.239  1.00  0.00    -0.507 OA
ATOM     15  H   UNL     1      84.533  51.560  49.222  1.00  0.00     0.293 HD
ENDBRANCH  10  14
BRANCH   5  16
ATOM     16  C   UNL     1      88.401  50.962  43.466  1.00  0.00    -0.007 A 
ATOM     17  C   UNL     1      88.398  51.892  42.414  1.00  0.00     0.007 A 
ATOM     18  C   UNL     1      88.930  49.683  43.230  1.00  0.00     0.007 A 
ATOM     19  C   UNL     1      88.899  51.547  41.158  1.00  0.00     0.000 A 
ATOM     20  C   UNL     1      89.429  49.340  41.973  1.00  0.00     0.000 A 
ATOM     21  C   UNL     1      89.414  50.271  40.937  1.00  0.00     0.000 A 
ENDBRANCH   5  16
TORSDOF 3
ENDMDL
MODEL 9
REMARK VINA RESULT:    -7.395      3.200      3.573
REMARK INTER + INTRA:          -8.837
REMARK INTER:                  -8.476
REMARK INTRA:                  -0.361
REMARK UNBOUND:                -0.361
REMARK SMILES COc1cc(O)c2c(c1)OC(c1ccccc1)CC2=O
REMARK SMILES IDX 3 1 9 2 8 3 10 4 11 5 18 6 19 7 20 8 7 9 5 10 4 11 2 12 1 13
REMARK SMILES IDX 6 14 12 16 13 17 17 18 14 19 16 20 15 21
REMARK H PARENT 6 15
ROOT
ATOM      1  C   UNL     1      85.936  52.771  46.679  1.00  0.00     0.126 A 
ATOM      2  C   UNL     1      86.717  51.708  46.211  1.00  0.00     0.093 A 
ATOM      3  C   UNL     1      87.195  51.702  44.901  1.00  0.00     0.138 A 
ATOM      4  O   UNL     1      87.946  50.620  44.525  1.00  0.00    -0.484 OA
ATOM      5  C   UNL     1      87.947  50.403  43.103  1.00  0.00     0.211 C 
ATOM      6  C   UNL     1      88.427  51.644  42.364  1.00  0.00     0.131 C 
ATOM      7  C   UNL     1      87.502  52.777  42.705  1.00  0.00     0.174 C 
ATOM      8  O   UNL     1      87.265  53.704  41.934  1.00  0.00    -0.294 OA
ATOM      9  C   UNL     1      86.920  52.778  44.059  1.00  0.00     0.102 A 
ATOM     10  C   UNL     1      86.138  53.840  44.522  1.00  0.00     0.133 A 
ATOM     11  C   UNL     1      85.643  53.836  45.826  1.00  0.00     0.093 A 
ENDROOT
BRANCH   1  12
ATOM     12  O   UNL     1      85.524  52.646  47.978  1.00  0.00    -0.496 OA
ATOM     13  C   UNL     1      86.161  51.642  48.761  1.00  0.00     0.278 C 
ENDBRANCH   1  12
BRANCH  10  14
ATOM     14  O   UNL     1      85.826  54.927  43.748  1.00  0.00    -0.507 OA
ATOM     15  H   UNL     1      85.343  54.607  42.952  1.00  0.00     0.293 HD
ENDBRANCH  10  14
BRANCH   5  16
ATOM     16  C   UNL     1      88.840  49.218  42.786  1.00  0.00    -0.007 A 
ATOM     17  C   UNL     1      90.114  49.124  43.367  1.00  0.00     0.007 A 
ATOM     18  C   UNL     1      88.406  48.179  41.947  1.00  0.00     0.007 A 
ATOM     19  C   UNL     1      90.936  48.026  43.107  1.00  0.00     0.000 A 
ATOM     20  C   UNL     1      89.229  47.083  41.687  1.00  0.00     0.000 A 
ATOM     21  C   UNL     1      90.494  47.006  42.267  1.00  0.00     0.000 A 
ENDBRANCH   5  16
TORSDOF 3
ENDMDL
