MODEL 1
REMARK VINA RESULT:    -8.128      0.000      0.000
REMARK INTER + INTRA:         -10.906
REMARK INTER:                 -10.802
REMARK INTRA:                  -0.103
REMARK UNBOUND:                -0.164
REMARK SMILES COc1ccc(C2CC(=O)c3c(OC)c(OC)c(O)c(OC)c3O2)cc1
REMARK SMILES IDX 7 1 8 2 9 3 10 4 11 5 23 6 24 7 20 8 18 9 15 10 12 11 6 12
REMARK SMILES IDX 3 13 4 14 26 15 5 16 25 17 2 18 1 19 21 20 22 21 13 22 14 23
REMARK SMILES IDX 19 24 16 26 17 27
REMARK H PARENT 19 25
ROOT
ATOM      1  C   UNL     1      83.624  46.910  42.883  1.00  0.00     0.211 C 
ATOM      2  C   UNL     1      84.006  45.500  43.283  1.00  0.00     0.131 C 
ATOM      3  C   UNL     1      85.301  45.201  42.586  1.00  0.00     0.174 C 
ATOM      4  O   UNL     1      85.490  44.113  42.056  1.00  0.00    -0.294 OA
ATOM      5  C   UNL     1      86.311  46.296  42.585  1.00  0.00     0.110 A 
ATOM      6  C   UNL     1      85.889  47.584  42.973  1.00  0.00     0.180 A 
ATOM      7  O   UNL     1      84.600  47.839  43.368  1.00  0.00    -0.480 OA
ATOM      8  C   UNL     1      86.816  48.636  43.015  1.00  0.00     0.208 A 
ATOM      9  C   UNL     1      88.159  48.380  42.684  1.00  0.00     0.208 A 
ATOM     10  C   UNL     1      88.593  47.105  42.315  1.00  0.00     0.208 A 
ATOM     11  C   UNL     1      87.652  46.068  42.235  1.00  0.00     0.179 A 
ENDROOT
BRANCH   1  12
ATOM     12  C   UNL     1      82.273  47.292  43.456  1.00  0.00    -0.007 A 
ATOM     13  C   UNL     1      79.777  47.986  44.575  1.00  0.00     0.118 A 
ATOM     14  C   UNL     1      80.360  46.754  44.868  1.00  0.00     0.047 A 
ATOM     15  C   UNL     1      80.445  48.870  43.726  1.00  0.00     0.047 A 
ATOM     16  C   UNL     1      81.599  46.411  44.315  1.00  0.00     0.011 A 
ATOM     17  C   UNL     1      81.683  48.531  43.173  1.00  0.00     0.011 A 
BRANCH  13  18
ATOM     18  O   UNL     1      78.577  48.443  45.046  1.00  0.00    -0.497 OA
ATOM     19  C   UNL     1      78.295  49.823  44.855  1.00  0.00     0.278 C 
ENDBRANCH  13  18
ENDBRANCH   1  12
BRANCH   8  20
ATOM     20  O   UNL     1      86.596  49.950  43.362  1.00  0.00    -0.490 OA
ATOM     21  C   UNL     1      86.001  50.817  42.404  1.00  0.00     0.278 C 
ENDBRANCH   8  20
BRANCH  11  22
ATOM     22  O   UNL     1      88.089  44.799  41.939  1.00  0.00    -0.492 OA
ATOM     23  C   UNL     1      88.556  44.139  43.117  1.00  0.00     0.278 C 
ENDBRANCH  11  22
BRANCH   9  24
ATOM     24  O   UNL     1      89.042  49.435  42.710  1.00  0.00    -0.501 OA
ATOM     25  H   UNL     1      89.832  49.125  42.224  1.00  0.00     0.293 HD
ENDBRANCH   9  24
BRANCH  10  26
ATOM     26  O   UNL     1      89.885  46.798  41.969  1.00  0.00    -0.490 OA
ATOM     27  C   UNL     1      90.819  46.870  43.043  1.00  0.00     0.278 C 
ENDBRANCH  10  26
TORSDOF 6
ENDMDL
MODEL 2
REMARK VINA RESULT:    -7.599      1.633      2.442
REMARK INTER + INTRA:         -10.206
REMARK INTER:                  -9.967
REMARK INTRA:                  -0.239
REMARK UNBOUND:                -0.164
REMARK SMILES COc1ccc(C2CC(=O)c3c(OC)c(OC)c(O)c(OC)c3O2)cc1
REMARK SMILES IDX 7 1 8 2 9 3 10 4 11 5 23 6 24 7 20 8 18 9 15 10 12 11 6 12
REMARK SMILES IDX 3 13 4 14 26 15 5 16 25 17 2 18 1 19 21 20 22 21 13 22 14 23
REMARK SMILES IDX 19 24 16 26 17 27
REMARK H PARENT 19 25
ROOT
ATOM      1  C   UNL     1      81.862  48.444  43.388  1.00  0.00     0.211 C 
ATOM      2  C   UNL     1      82.015  47.033  43.916  1.00  0.00     0.131 C 
ATOM      3  C   UNL     1      83.270  46.487  43.301  1.00  0.00     0.174 C 
ATOM      4  O   UNL     1      83.308  45.341  42.868  1.00  0.00    -0.294 OA
ATOM      5  C   UNL     1      84.433  47.416  43.255  1.00  0.00     0.110 A 
ATOM      6  C   UNL     1      84.199  48.781  43.520  1.00  0.00     0.180 A 
ATOM      7  O   UNL     1      82.953  49.256  43.838  1.00  0.00    -0.480 OA
ATOM      8  C   UNL     1      85.273  49.684  43.516  1.00  0.00     0.208 A 
ATOM      9  C   UNL     1      86.572  49.204  43.264  1.00  0.00     0.208 A 
ATOM     10  C   UNL     1      86.819  47.852  43.017  1.00  0.00     0.208 A 
ATOM     11  C   UNL     1      85.735  46.962  42.981  1.00  0.00     0.179 A 
ENDROOT
BRANCH   1  12
ATOM     12  C   UNL     1      80.568  49.070  43.872  1.00  0.00    -0.007 A 
ATOM     13  C   UNL     1      78.184  50.244  44.821  1.00  0.00     0.118 A 
ATOM     14  C   UNL     1      78.867  49.313  45.601  1.00  0.00     0.047 A 
ATOM     15  C   UNL     1      78.697  50.590  43.570  1.00  0.00     0.047 A 
ATOM     16  C   UNL     1      80.051  48.732  45.131  1.00  0.00     0.011 A 
ATOM     17  C   UNL     1      79.879  50.013  43.098  1.00  0.00     0.011 A 
BRANCH  13  18
ATOM     18  O   UNL     1      77.024  50.884  45.160  1.00  0.00    -0.497 OA
ATOM     19  C   UNL     1      76.283  51.476  44.101  1.00  0.00     0.278 C 
ENDBRANCH  13  18
ENDBRANCH   1  12
BRANCH   8  20
ATOM     20  O   UNL     1      85.244  51.040  43.747  1.00  0.00    -0.490 OA
ATOM     21  C   UNL     1      85.179  51.502  45.091  1.00  0.00     0.278 C 
ENDBRANCH   8  20
BRANCH  11  22
ATOM     22  O   UNL     1      85.983  45.622  42.807  1.00  0.00    -0.492 OA
ATOM     23  C   UNL     1      86.380  45.018  44.039  1.00  0.00     0.278 C 
ENDBRANCH  11  22
BRANCH   9  24
ATOM     24  O   UNL     1      87.603  50.114  43.243  1.00  0.00    -0.501 OA
ATOM     25  H   UNL     1      87.193  50.976  43.453  1.00  0.00     0.293 HD
ENDBRANCH   9  24
BRANCH  10  26
ATOM     26  O   UNL     1      88.059  47.328  42.752  1.00  0.00    -0.490 OA
ATOM     27  C   UNL     1      88.507  47.513  41.413  1.00  0.00     0.278 C 
ENDBRANCH  10  26
TORSDOF 6
ENDMDL
MODEL 3
REMARK VINA RESULT:    -7.422      4.584      8.834
REMARK INTER + INTRA:          -9.973
REMARK INTER:                  -9.743
REMARK INTRA:                  -0.230
REMARK UNBOUND:                -0.164
REMARK SMILES COc1ccc(C2CC(=O)c3c(OC)c(OC)c(O)c(OC)c3O2)cc1
REMARK SMILES IDX 7 1 8 2 9 3 10 4 11 5 23 6 24 7 20 8 18 9 15 10 12 11 6 12
REMARK SMILES IDX 3 13 4 14 26 15 5 16 25 17 2 18 1 19 21 20 22 21 13 22 14 23
REMARK SMILES IDX 19 24 16 26 17 27
REMARK H PARENT 19 25
ROOT
ATOM      1  C   UNL     1      87.141  51.778  44.126  1.00  0.00     0.211 C 
ATOM      2  C   UNL     1      86.384  51.435  45.392  1.00  0.00     0.131 C 
ATOM      3  C   UNL     1      86.188  52.727  46.128  1.00  0.00     0.174 C 
ATOM      4  O   UNL     1      86.348  52.786  47.342  1.00  0.00    -0.294 OA
ATOM      5  C   UNL     1      85.798  53.901  45.298  1.00  0.00     0.110 A 
ATOM      6  C   UNL     1      85.914  53.787  43.897  1.00  0.00     0.180 A 
ATOM      7  O   UNL     1      86.347  52.633  43.295  1.00  0.00    -0.480 OA
ATOM      8  C   UNL     1      85.529  54.858  43.079  1.00  0.00     0.208 A 
ATOM      9  C   UNL     1      85.013  56.025  43.673  1.00  0.00     0.208 A 
ATOM     10  C   UNL     1      84.877  56.144  45.058  1.00  0.00     0.208 A 
ATOM     11  C   UNL     1      85.304  55.084  45.872  1.00  0.00     0.179 A 
ENDROOT
BRANCH   1  12
ATOM     12  C   UNL     1      87.482  50.527  43.339  1.00  0.00    -0.007 A 
ATOM     13  C   UNL     1      88.170  48.205  41.891  1.00  0.00     0.118 A 
ATOM     14  C   UNL     1      88.952  49.354  41.788  1.00  0.00     0.047 A 
ATOM     15  C   UNL     1      87.048  48.218  42.721  1.00  0.00     0.047 A 
ATOM     16  C   UNL     1      88.612  50.505  42.508  1.00  0.00     0.011 A 
ATOM     17  C   UNL     1      86.706  49.365  43.442  1.00  0.00     0.011 A 
BRANCH  13  18
ATOM     18  O   UNL     1      88.390  47.020  41.246  1.00  0.00    -0.497 OA
ATOM     19  C   UNL     1      88.174  45.830  41.994  1.00  0.00     0.278 C 
ENDBRANCH  13  18
ENDBRANCH   1  12
BRANCH   8  20
ATOM     20  O   UNL     1      85.571  54.937  41.705  1.00  0.00    -0.490 OA
ATOM     21  C   UNL     1      84.550  54.291  40.954  1.00  0.00     0.278 C 
ENDBRANCH   8  20
BRANCH  11  22
ATOM     22  O   UNL     1      85.106  55.171  47.229  1.00  0.00    -0.492 OA
ATOM     23  C   UNL     1      83.740  54.910  47.558  1.00  0.00     0.278 C 
ENDBRANCH  11  22
BRANCH   9  24
ATOM     24  O   UNL     1      84.665  57.070  42.848  1.00  0.00    -0.501 OA
ATOM     25  H   UNL     1      85.496  57.556  42.678  1.00  0.00     0.293 HD
ENDBRANCH   9  24
BRANCH  10  26
ATOM     26  O   UNL     1      84.394  57.259  45.695  1.00  0.00    -0.490 OA
ATOM     27  C   UNL     1      85.319  58.339  45.783  1.00  0.00     0.278 C 
ENDBRANCH  10  26
TORSDOF 6
ENDMDL
MODEL 4
REMARK VINA RESULT:    -7.400      2.831      6.879
REMARK INTER + INTRA:          -9.943
REMARK INTER:                  -9.791
REMARK INTRA:                  -0.152
REMARK UNBOUND:                -0.164
REMARK SMILES COc1ccc(C2CC(=O)c3c(OC)c(OC)c(O)c(OC)c3O2)cc1
REMARK SMILES IDX 7 1 8 2 9 3 10 4 11 5 23 6 24 7 20 8 18 9 15 10 12 11 6 12
REMARK SMILES IDX 3 13 4 14 26 15 5 16 25 17 2 18 1 19 21 20 22 21 13 22 14 23
REMARK SMILES IDX 19 24 16 26 17 27
REMARK H PARENT 19 25
ROOT
ATOM      1  C   UNL     1      86.979  48.141  42.078  1.00  0.00     0.211 C 
ATOM      2  C   UNL     1      88.344  48.724  41.779  1.00  0.00     0.131 C 
ATOM      3  C   UNL     1      88.103  50.089  41.206  1.00  0.00     0.174 C 
ATOM      4  O   UNL     1      88.743  50.485  40.240  1.00  0.00    -0.294 OA
ATOM      5  C   UNL     1      87.054  50.905  41.880  1.00  0.00     0.110 A 
ATOM      6  C   UNL     1      86.196  50.255  42.792  1.00  0.00     0.180 A 
ATOM      7  O   UNL     1      86.322  48.921  43.084  1.00  0.00    -0.480 OA
ATOM      8  C   UNL     1      85.215  50.993  43.470  1.00  0.00     0.208 A 
ATOM      9  C   UNL     1      85.117  52.378  43.239  1.00  0.00     0.208 A 
ATOM     10  C   UNL     1      85.971  53.036  42.352  1.00  0.00     0.208 A 
ATOM     11  C   UNL     1      86.922  52.284  41.646  1.00  0.00     0.179 A 
ENDROOT
BRANCH   1  12
ATOM     12  C   UNL     1      87.094  46.714  42.578  1.00  0.00    -0.007 A 
ATOM     13  C   UNL     1      87.252  44.049  43.494  1.00  0.00     0.118 A 
ATOM     14  C   UNL     1      86.176  44.855  43.862  1.00  0.00     0.047 A 
ATOM     15  C   UNL     1      88.244  44.575  42.666  1.00  0.00     0.047 A 
ATOM     16  C   UNL     1      86.096  46.176  43.405  1.00  0.00     0.011 A 
ATOM     17  C   UNL     1      88.168  45.893  42.208  1.00  0.00     0.011 A 
BRANCH  13  18
ATOM     18  O   UNL     1      87.450  42.749  43.868  1.00  0.00    -0.497 OA
ATOM     19  C   UNL     1      88.663  42.452  44.547  1.00  0.00     0.278 C 
ENDBRANCH  13  18
ENDBRANCH   1  12
BRANCH   8  20
ATOM     20  O   UNL     1      84.292  50.541  44.385  1.00  0.00    -0.490 OA
ATOM     21  C   UNL     1      83.172  49.802  43.916  1.00  0.00     0.278 C 
ENDBRANCH   8  20
BRANCH  11  22
ATOM     22  O   UNL     1      87.808  52.939  40.826  1.00  0.00    -0.492 OA
ATOM     23  C   UNL     1      88.961  53.357  41.560  1.00  0.00     0.278 C 
ENDBRANCH  11  22
BRANCH   9  24
ATOM     24  O   UNL     1      84.130  53.074  43.899  1.00  0.00    -0.501 OA
ATOM     25  H   UNL     1      83.738  52.436  44.527  1.00  0.00     0.293 HD
ENDBRANCH   9  24
BRANCH  10  26
ATOM     26  O   UNL     1      85.915  54.379  42.076  1.00  0.00    -0.490 OA
ATOM     27  C   UNL     1      84.831  54.768  41.237  1.00  0.00     0.278 C 
ENDBRANCH  10  26
TORSDOF 6
ENDMDL
MODEL 5
REMARK VINA RESULT:    -7.385      2.988      5.935
REMARK INTER + INTRA:          -9.924
REMARK INTER:                  -9.950
REMARK INTRA:                   0.026
REMARK UNBOUND:                -0.164
REMARK SMILES COc1ccc(C2CC(=O)c3c(OC)c(OC)c(O)c(OC)c3O2)cc1
REMARK SMILES IDX 7 1 8 2 9 3 10 4 11 5 23 6 24 7 20 8 18 9 15 10 12 11 6 12
REMARK SMILES IDX 3 13 4 14 26 15 5 16 25 17 2 18 1 19 21 20 22 21 13 22 14 23
REMARK SMILES IDX 19 24 16 26 17 27
REMARK H PARENT 19 25
ROOT
ATOM      1  C   UNL     1      87.515  51.102  44.232  1.00  0.00     0.211 C 
ATOM      2  C   UNL     1      88.347  51.255  42.977  1.00  0.00     0.131 C 
ATOM      3  C   UNL     1      88.892  49.893  42.664  1.00  0.00     0.174 C 
ATOM      4  O   UNL     1      90.056  49.751  42.308  1.00  0.00    -0.294 OA
ATOM      5  C   UNL     1      87.940  48.758  42.816  1.00  0.00     0.110 A 
ATOM      6  C   UNL     1      86.726  48.999  43.491  1.00  0.00     0.180 A 
ATOM      7  O   UNL     1      86.400  50.239  43.979  1.00  0.00    -0.480 OA
ATOM      8  C   UNL     1      85.790  47.964  43.629  1.00  0.00     0.208 A 
ATOM      9  C   UNL     1      86.073  46.703  43.071  1.00  0.00     0.208 A 
ATOM     10  C   UNL     1      87.264  46.457  42.385  1.00  0.00     0.208 A 
ATOM     11  C   UNL     1      88.214  47.484  42.288  1.00  0.00     0.179 A 
ENDROOT
BRANCH   1  12
ATOM     12  C   UNL     1      86.985  52.443  44.703  1.00  0.00    -0.007 A 
ATOM     13  C   UNL     1      85.959  54.935  45.538  1.00  0.00     0.118 A 
ATOM     14  C   UNL     1      86.177  54.683  44.185  1.00  0.00     0.047 A 
ATOM     15  C   UNL     1      86.249  53.938  46.471  1.00  0.00     0.047 A 
ATOM     16  C   UNL     1      86.684  53.446  43.770  1.00  0.00     0.011 A 
ATOM     17  C   UNL     1      86.755  52.702  46.061  1.00  0.00     0.011 A 
BRANCH  13  18
ATOM     18  O   UNL     1      85.470  56.094  46.074  1.00  0.00    -0.497 OA
ATOM     19  C   UNL     1      84.336  55.982  46.924  1.00  0.00     0.278 C 
ENDBRANCH  13  18
ENDBRANCH   1  12
BRANCH   8  20
ATOM     20  O   UNL     1      84.563  48.005  44.251  1.00  0.00    -0.490 OA
ATOM     21  C   UNL     1      83.467  48.594  43.562  1.00  0.00     0.278 C 
ENDBRANCH   8  20
BRANCH  11  22
ATOM     22  O   UNL     1      89.354  47.265  41.554  1.00  0.00    -0.492 OA
ATOM     23  C   UNL     1      90.365  46.659  42.363  1.00  0.00     0.278 C 
ENDBRANCH  11  22
BRANCH   9  24
ATOM     24  O   UNL     1      85.148  45.700  43.241  1.00  0.00    -0.501 OA
ATOM     25  H   UNL     1      84.323  46.035  42.837  1.00  0.00     0.293 HD
ENDBRANCH   9  24
BRANCH  10  26
ATOM     26  O   UNL     1      87.602  45.247  41.832  1.00  0.00    -0.490 OA
ATOM     27  C   UNL     1      87.919  44.230  42.778  1.00  0.00     0.278 C 
ENDBRANCH  10  26
TORSDOF 6
ENDMDL
MODEL 6
REMARK VINA RESULT:    -7.271      4.105      6.988
REMARK INTER + INTRA:          -9.773
REMARK INTER:                  -9.702
REMARK INTRA:                  -0.071
REMARK UNBOUND:                -0.164
REMARK SMILES COc1ccc(C2CC(=O)c3c(OC)c(OC)c(O)c(OC)c3O2)cc1
REMARK SMILES IDX 7 1 8 2 9 3 10 4 11 5 23 6 24 7 20 8 18 9 15 10 12 11 6 12
REMARK SMILES IDX 3 13 4 14 26 15 5 16 25 17 2 18 1 19 21 20 22 21 13 22 14 23
REMARK SMILES IDX 19 24 16 26 17 27
REMARK H PARENT 19 25
ROOT
ATOM      1  C   UNL     1      84.477  50.741  43.914  1.00  0.00     0.211 C 
ATOM      2  C   UNL     1      84.619  51.145  45.367  1.00  0.00     0.131 C 
ATOM      3  C   UNL     1      85.578  52.299  45.390  1.00  0.00     0.174 C 
ATOM      4  O   UNL     1      86.453  52.368  46.245  1.00  0.00    -0.294 OA
ATOM      5  C   UNL     1      85.393  53.324  44.326  1.00  0.00     0.110 A 
ATOM      6  C   UNL     1      84.548  53.007  43.243  1.00  0.00     0.180 A 
ATOM      7  O   UNL     1      83.886  51.808  43.164  1.00  0.00    -0.480 OA
ATOM      8  C   UNL     1      84.324  53.957  42.235  1.00  0.00     0.208 A 
ATOM      9  C   UNL     1      84.936  55.220  42.334  1.00  0.00     0.208 A 
ATOM     10  C   UNL     1      85.761  55.552  43.411  1.00  0.00     0.208 A 
ATOM     11  C   UNL     1      86.014  54.583  44.393  1.00  0.00     0.179 A 
ENDROOT
BRANCH   1  12
ATOM     12  C   UNL     1      83.597  49.513  43.774  1.00  0.00    -0.007 A 
ATOM     13  C   UNL     1      81.996  47.201  43.548  1.00  0.00     0.118 A 
ATOM     14  C   UNL     1      83.381  47.111  43.422  1.00  0.00     0.047 A 
ATOM     15  C   UNL     1      81.415  48.446  43.792  1.00  0.00     0.047 A 
ATOM     16  C   UNL     1      84.175  48.258  43.536  1.00  0.00     0.011 A 
ATOM     17  C   UNL     1      82.205  49.593  43.907  1.00  0.00     0.011 A 
BRANCH  13  18
ATOM     18  O   UNL     1      81.109  46.164  43.459  1.00  0.00    -0.497 OA
ATOM     19  C   UNL     1      79.936  46.250  44.257  1.00  0.00     0.278 C 
ENDBRANCH  13  18
ENDBRANCH   1  12
BRANCH   8  20
ATOM     20  O   UNL     1      83.542  53.833  41.109  1.00  0.00    -0.490 OA
ATOM     21  C   UNL     1      82.132  53.959  41.241  1.00  0.00     0.278 C 
ENDBRANCH   8  20
BRANCH  11  22
ATOM     22  O   UNL     1      86.768  54.930  45.487  1.00  0.00    -0.492 OA
ATOM     23  C   UNL     1      85.957  55.561  46.480  1.00  0.00     0.278 C 
ENDBRANCH  11  22
BRANCH   9  24
ATOM     24  O   UNL     1      84.717  56.124  41.320  1.00  0.00    -0.501 OA
ATOM     25  H   UNL     1      85.434  56.784  41.402  1.00  0.00     0.293 HD
ENDBRANCH   9  24
BRANCH  10  26
ATOM     26  O   UNL     1      86.394  56.762  43.556  1.00  0.00    -0.490 OA
ATOM     27  C   UNL     1      85.536  57.840  43.920  1.00  0.00     0.278 C 
ENDBRANCH  10  26
TORSDOF 6
ENDMDL
MODEL 7
REMARK VINA RESULT:    -7.267      3.232      6.283
REMARK INTER + INTRA:          -9.768
REMARK INTER:                  -9.633
REMARK INTRA:                  -0.135
REMARK UNBOUND:                -0.164
REMARK SMILES COc1ccc(C2CC(=O)c3c(OC)c(OC)c(O)c(OC)c3O2)cc1
REMARK SMILES IDX 7 1 8 2 9 3 10 4 11 5 23 6 24 7 20 8 18 9 15 10 12 11 6 12
REMARK SMILES IDX 3 13 4 14 26 15 5 16 25 17 2 18 1 19 21 20 22 21 13 22 14 23
REMARK SMILES IDX 19 24 16 26 17 27
REMARK H PARENT 19 25
ROOT
ATOM      1  C   UNL     1      84.796  51.786  43.191  1.00  0.00     0.211 C 
ATOM      2  C   UNL     1      83.921  51.327  44.339  1.00  0.00     0.131 C 
ATOM      3  C   UNL     1      83.547  49.905  44.040  1.00  0.00     0.174 C 
ATOM      4  O   UNL     1      82.403  49.508  44.224  1.00  0.00    -0.294 OA
ATOM      5  C   UNL     1      84.638  49.038  43.516  1.00  0.00     0.110 A 
ATOM      6  C   UNL     1      85.827  49.661  43.084  1.00  0.00     0.180 A 
ATOM      7  O   UNL     1      86.005  51.019  43.158  1.00  0.00    -0.480 OA
ATOM      8  C   UNL     1      86.890  48.877  42.612  1.00  0.00     0.208 A 
ATOM      9  C   UNL     1      86.756  47.476  42.595  1.00  0.00     0.208 A 
ATOM     10  C   UNL     1      85.590  46.847  43.037  1.00  0.00     0.208 A 
ATOM     11  C   UNL     1      84.516  47.639  43.468  1.00  0.00     0.179 A 
ENDROOT
BRANCH   1  12
ATOM     12  C   UNL     1      85.162  53.251  43.337  1.00  0.00    -0.007 A 
ATOM     13  C   UNL     1      85.899  55.962  43.604  1.00  0.00     0.118 A 
ATOM     14  C   UNL     1      86.547  54.981  44.353  1.00  0.00     0.047 A 
ATOM     15  C   UNL     1      84.887  55.584  42.720  1.00  0.00     0.047 A 
ATOM     16  C   UNL     1      86.183  53.636  44.219  1.00  0.00     0.011 A 
ATOM     17  C   UNL     1      84.522  54.243  42.583  1.00  0.00     0.011 A 
BRANCH  13  18
ATOM     18  O   UNL     1      86.156  57.304  43.639  1.00  0.00    -0.497 OA
ATOM     19  C   UNL     1      85.485  58.062  44.637  1.00  0.00     0.278 C 
ENDBRANCH  13  18
ENDBRANCH   1  12
BRANCH   8  20
ATOM     20  O   UNL     1      88.116  49.298  42.148  1.00  0.00    -0.490 OA
ATOM     21  C   UNL     1      89.122  49.639  43.094  1.00  0.00     0.278 C 
ENDBRANCH   8  20
BRANCH  11  22
ATOM     22  O   UNL     1      83.395  47.020  43.967  1.00  0.00    -0.492 OA
ATOM     23  C   UNL     1      82.501  46.667  42.911  1.00  0.00     0.278 C 
ENDBRANCH  11  22
BRANCH   9  24
ATOM     24  O   UNL     1      87.805  46.733  42.105  1.00  0.00    -0.501 OA
ATOM     25  H   UNL     1      87.939  46.014  42.753  1.00  0.00     0.293 HD
ENDBRANCH   9  24
BRANCH  10  26
ATOM     26  O   UNL     1      85.396  45.488  43.033  1.00  0.00    -0.490 OA
ATOM     27  C   UNL     1      85.936  44.809  44.163  1.00  0.00     0.278 C 
ENDBRANCH  10  26
TORSDOF 6
ENDMDL
MODEL 8
REMARK VINA RESULT:    -7.120      3.066      5.382
REMARK INTER + INTRA:          -9.574
REMARK INTER:                  -9.480
REMARK INTRA:                  -0.093
REMARK UNBOUND:                -0.164
REMARK SMILES COc1ccc(C2CC(=O)c3c(OC)c(OC)c(O)c(OC)c3O2)cc1
REMARK SMILES IDX 7 1 8 2 9 3 10 4 11 5 23 6 24 7 20 8 18 9 15 10 12 11 6 12
REMARK SMILES IDX 3 13 4 14 26 15 5 16 25 17 2 18 1 19 21 20 22 21 13 22 14 23
REMARK SMILES IDX 19 24 16 26 17 27
REMARK H PARENT 19 25
ROOT
ATOM      1  C   UNL     1      85.648  51.083  43.801  1.00  0.00     0.211 C 
ATOM      2  C   UNL     1      84.875  50.096  44.650  1.00  0.00     0.131 C 
ATOM      3  C   UNL     1      84.879  48.799  43.896  1.00  0.00     0.174 C 
ATOM      4  O   UNL     1      83.865  48.116  43.820  1.00  0.00    -0.294 OA
ATOM      5  C   UNL     1      86.172  48.415  43.262  1.00  0.00     0.110 A 
ATOM      6  C   UNL     1      87.182  49.395  43.175  1.00  0.00     0.180 A 
ATOM      7  O   UNL     1      87.011  50.660  43.675  1.00  0.00    -0.480 OA
ATOM      8  C   UNL     1      88.423  49.065  42.613  1.00  0.00     0.208 A 
ATOM      9  C   UNL     1      88.644  47.751  42.160  1.00  0.00     0.208 A 
ATOM     10  C   UNL     1      87.658  46.767  42.256  1.00  0.00     0.208 A 
ATOM     11  C   UNL     1      86.404  47.115  42.781  1.00  0.00     0.179 A 
ENDROOT
BRANCH   1  12
ATOM     12  C   UNL     1      85.631  52.467  44.422  1.00  0.00    -0.007 A 
ATOM     13  C   UNL     1      85.608  55.017  45.629  1.00  0.00     0.118 A 
ATOM     14  C   UNL     1      84.849  53.979  46.166  1.00  0.00     0.047 A 
ATOM     15  C   UNL     1      86.381  54.777  44.492  1.00  0.00     0.047 A 
ATOM     16  C   UNL     1      84.862  52.713  45.569  1.00  0.00     0.011 A 
ATOM     17  C   UNL     1      86.397  53.514  43.893  1.00  0.00     0.011 A 
BRANCH  13  18
ATOM     18  O   UNL     1      85.684  56.294  46.113  1.00  0.00    -0.497 OA
ATOM     19  C   UNL     1      84.480  57.050  46.125  1.00  0.00     0.278 C 
ENDBRANCH  13  18
ENDBRANCH   1  12
BRANCH   8  20
ATOM     20  O   UNL     1      89.521  49.877  42.440  1.00  0.00    -0.490 OA
ATOM     21  C   UNL     1      89.522  50.800  41.358  1.00  0.00     0.278 C 
ENDBRANCH   8  20
BRANCH  11  22
ATOM     22  O   UNL     1      85.457  46.133  42.940  1.00  0.00    -0.492 OA
ATOM     23  C   UNL     1      85.638  45.454  44.184  1.00  0.00     0.278 C 
ENDBRANCH  11  22
BRANCH   9  24
ATOM     24  O   UNL     1      89.863  47.461  41.591  1.00  0.00    -0.501 OA
ATOM     25  H   UNL     1      90.371  46.999  42.286  1.00  0.00     0.293 HD
ENDBRANCH   9  24
BRANCH  10  26
ATOM     26  O   UNL     1      87.810  45.474  41.821  1.00  0.00    -0.490 OA
ATOM     27  C   UNL     1      88.670  44.675  42.627  1.00  0.00     0.278 C 
ENDBRANCH  10  26
TORSDOF 6
ENDMDL
MODEL 9
REMARK VINA RESULT:    -6.949      4.090      8.220
REMARK INTER + INTRA:          -9.348
REMARK INTER:                  -9.184
REMARK INTRA:                  -0.164
REMARK UNBOUND:                -0.164
REMARK SMILES COc1ccc(C2CC(=O)c3c(OC)c(OC)c(O)c(OC)c3O2)cc1
REMARK SMILES IDX 7 1 8 2 9 3 10 4 11 5 23 6 24 7 20 8 18 9 15 10 12 11 6 12
REMARK SMILES IDX 3 13 4 14 26 15 5 16 25 17 2 18 1 19 21 20 22 21 13 22 14 23
REMARK SMILES IDX 19 24 16 26 17 27
REMARK H PARENT 19 25
ROOT
ATOM      1  C   UNL     1      86.776  50.434  42.266  1.00  0.00     0.211 C 
ATOM      2  C   UNL     1      87.498  51.441  41.395  1.00  0.00     0.131 C 
ATOM      3  C   UNL     1      86.670  52.691  41.421  1.00  0.00     0.174 C 
ATOM      4  O   UNL     1      86.470  53.332  40.396  1.00  0.00    -0.294 OA
ATOM      5  C   UNL     1      86.121  53.084  42.749  1.00  0.00     0.110 A 
ATOM      6  C   UNL     1      86.177  52.137  43.793  1.00  0.00     0.180 A 
ATOM      7  O   UNL     1      86.737  50.897  43.621  1.00  0.00    -0.480 OA
ATOM      8  C   UNL     1      85.698  52.478  45.067  1.00  0.00     0.208 A 
ATOM      9  C   UNL     1      85.186  53.771  45.284  1.00  0.00     0.208 A 
ATOM     10  C   UNL     1      85.142  54.723  44.263  1.00  0.00     0.208 A 
ATOM     11  C   UNL     1      85.583  54.361  42.981  1.00  0.00     0.179 A 
ENDROOT
BRANCH   1  12
ATOM     12  C   UNL     1      87.477  49.089  42.240  1.00  0.00    -0.007 A 
ATOM     13  C   UNL     1      88.822  46.609  42.223  1.00  0.00     0.118 A 
ATOM     14  C   UNL     1      89.512  47.784  41.931  1.00  0.00     0.047 A 
ATOM     15  C   UNL     1      87.462  46.677  42.528  1.00  0.00     0.047 A 
ATOM     16  C   UNL     1      88.845  49.015  41.942  1.00  0.00     0.011 A 
ATOM     17  C   UNL     1      86.793  47.903  42.540  1.00  0.00     0.011 A 
BRANCH  13  18
ATOM     18  O   UNL     1      89.351  45.348  42.247  1.00  0.00    -0.497 OA
ATOM     19  C   UNL     1      88.536  44.319  42.793  1.00  0.00     0.278 C 
ENDBRANCH  13  18
ENDBRANCH   1  12
BRANCH   8  20
ATOM     20  O   UNL     1      85.665  51.698  46.199  1.00  0.00    -0.490 OA
ATOM     21  C   UNL     1      86.890  51.400  46.858  1.00  0.00     0.278 C 
ENDBRANCH   8  20
BRANCH  11  22
ATOM     22  O   UNL     1      85.604  55.316  41.994  1.00  0.00    -0.492 OA
ATOM     23  C   UNL     1      84.289  55.545  41.485  1.00  0.00     0.278 C 
ENDBRANCH  11  22
BRANCH   9  24
ATOM     24  O   UNL     1      84.702  54.071  46.536  1.00  0.00    -0.501 OA
ATOM     25  H   UNL     1      85.405  53.800  47.158  1.00  0.00     0.293 HD
ENDBRANCH   9  24
BRANCH  10  26
ATOM     26  O   UNL     1      84.643  55.993  44.410  1.00  0.00    -0.490 OA
ATOM     27  C   UNL     1      85.557  56.927  44.978  1.00  0.00     0.278 C 
ENDBRANCH  10  26
TORSDOF 6
ENDMDL
