MODEL 1
REMARK VINA RESULT:    -8.271      0.000      0.000
REMARK INTER + INTRA:         -10.093
REMARK INTER:                  -9.727
REMARK INTRA:                  -0.366
REMARK UNBOUND:                -0.130
REMARK SMILES COc1cc(O)c2c(c1)O[C@H](c1ccc(O)cc1)[C@@H](O)C2=O
REMARK SMILES IDX 3 1 9 2 8 3 10 4 11 5 19 6 21 7 22 8 7 9 5 10 4 11 2 12 1 13
REMARK SMILES IDX 6 14 12 16 13 17 18 18 14 19 17 20 15 21 16 22 20 24
REMARK H PARENT 6 15 16 23 20 25
ROOT
ATOM      1  C   UNL     1      89.250  49.479  42.682  1.00  0.00     0.126 A 
ATOM      2  C   UNL     1      88.556  50.180  43.674  1.00  0.00     0.093 A 
ATOM      3  C   UNL     1      87.821  51.323  43.356  1.00  0.00     0.138 A 
ATOM      4  O   UNL     1      87.176  51.938  44.393  1.00  0.00    -0.481 OA
ATOM      5  C   UNL     1      86.884  53.329  44.163  1.00  0.00     0.240 C 
ATOM      6  C   UNL     1      86.117  53.537  42.851  1.00  0.00     0.231 C 
ATOM      7  C   UNL     1      86.915  52.921  41.719  1.00  0.00     0.202 C 
ATOM      8  O   UNL     1      86.857  53.341  40.561  1.00  0.00    -0.291 OA
ATOM      9  C   UNL     1      87.752  51.754  42.036  1.00  0.00     0.105 A 
ATOM     10  C   UNL     1      88.447  51.058  41.041  1.00  0.00     0.133 A 
ATOM     11  C   UNL     1      89.196  49.926  41.361  1.00  0.00     0.093 A 
ENDROOT
BRANCH   1  12
ATOM     12  O   UNL     1      89.935  48.384  43.132  1.00  0.00    -0.496 OA
ATOM     13  C   UNL     1      91.291  48.586  43.515  1.00  0.00     0.278 C 
ENDBRANCH   1  12
BRANCH  10  14
ATOM     14  O   UNL     1      88.430  51.428  39.722  1.00  0.00    -0.507 OA
ATOM     15  H   UNL     1      88.044  50.692  39.197  1.00  0.00     0.293 HD
ENDBRANCH  10  14
BRANCH   5  16
ATOM     16  C   UNL     1      86.083  53.836  45.356  1.00  0.00    -0.004 A 
ATOM     17  C   UNL     1      84.886  53.219  45.761  1.00  0.00     0.011 A 
ATOM     18  C   UNL     1      86.525  54.968  46.061  1.00  0.00     0.011 A 
ATOM     19  C   UNL     1      84.161  53.709  46.850  1.00  0.00     0.046 A 
ATOM     20  C   UNL     1      85.799  55.459  47.148  1.00  0.00     0.046 A 
ATOM     21  C   UNL     1      84.626  54.825  47.535  1.00  0.00     0.115 A 
BRANCH  21  22
ATOM     22  O   UNL     1      83.949  55.337  48.603  1.00  0.00    -0.508 OA
ATOM     23  H   UNL     1      83.154  54.799  48.751  1.00  0.00     0.293 HD
ENDBRANCH  21  22
ENDBRANCH   5  16
BRANCH   6  24
ATOM     24  O   UNL     1      85.939  54.925  42.552  1.00  0.00    -0.381 OA
ATOM     25  H   UNL     1      85.159  55.220  43.062  1.00  0.00     0.211 HD
ENDBRANCH   6  24
TORSDOF 5
ENDMDL
MODEL 2
REMARK VINA RESULT:    -7.877      3.751      6.051
REMARK INTER + INTRA:          -9.618
REMARK INTER:                  -9.246
REMARK INTRA:                  -0.372
REMARK UNBOUND:                -0.130
REMARK SMILES COc1cc(O)c2c(c1)O[C@H](c1ccc(O)cc1)[C@@H](O)C2=O
REMARK SMILES IDX 3 1 9 2 8 3 10 4 11 5 19 6 21 7 22 8 7 9 5 10 4 11 2 12 1 13
REMARK SMILES IDX 6 14 12 16 13 17 18 18 14 19 17 20 15 21 16 22 20 24
REMARK H PARENT 6 15 16 23 20 25
ROOT
ATOM      1  C   UNL     1      87.429  45.988  42.372  1.00  0.00     0.126 A 
ATOM      2  C   UNL     1      88.096  47.082  41.810  1.00  0.00     0.093 A 
ATOM      3  C   UNL     1      87.648  48.383  42.040  1.00  0.00     0.138 A 
ATOM      4  O   UNL     1      88.366  49.386  41.450  1.00  0.00    -0.481 OA
ATOM      5  C   UNL     1      87.628  50.608  41.261  1.00  0.00     0.240 C 
ATOM      6  C   UNL     1      86.998  51.095  42.571  1.00  0.00     0.231 C 
ATOM      7  C   UNL     1      86.137  49.984  43.140  1.00  0.00     0.202 C 
ATOM      8  O   UNL     1      85.148  50.204  43.842  1.00  0.00    -0.291 OA
ATOM      9  C   UNL     1      86.546  48.600  42.860  1.00  0.00     0.105 A 
ATOM     10  C   UNL     1      85.875  47.509  43.421  1.00  0.00     0.133 A 
ATOM     11  C   UNL     1      86.311  46.206  43.177  1.00  0.00     0.093 A 
ENDROOT
BRANCH   1  12
ATOM     12  O   UNL     1      87.968  44.771  42.059  1.00  0.00    -0.496 OA
ATOM     13  C   UNL     1      88.276  43.904  43.146  1.00  0.00     0.278 C 
ENDBRANCH   1  12
BRANCH  10  14
ATOM     14  O   UNL     1      84.779  47.645  44.232  1.00  0.00    -0.507 OA
ATOM     15  H   UNL     1      84.720  46.854  44.813  1.00  0.00     0.293 HD
ENDBRANCH  10  14
BRANCH   5  16
ATOM     16  C   UNL     1      88.588  51.645  40.692  1.00  0.00    -0.004 A 
ATOM     17  C   UNL     1      88.360  52.264  39.449  1.00  0.00     0.011 A 
ATOM     18  C   UNL     1      89.753  51.981  41.402  1.00  0.00     0.011 A 
ATOM     19  C   UNL     1      89.260  53.202  38.941  1.00  0.00     0.046 A 
ATOM     20  C   UNL     1      90.654  52.917  40.893  1.00  0.00     0.046 A 
ATOM     21  C   UNL     1      90.400  53.522  39.669  1.00  0.00     0.115 A 
BRANCH  21  22
ATOM     22  O   UNL     1      91.306  54.433  39.210  1.00  0.00    -0.508 OA
ATOM     23  H   UNL     1      90.835  55.255  38.996  1.00  0.00     0.293 HD
ENDBRANCH  21  22
ENDBRANCH   5  16
BRANCH   6  24
ATOM     24  O   UNL     1      86.156  52.235  42.366  1.00  0.00    -0.381 OA
ATOM     25  H   UNL     1      85.370  52.103  42.932  1.00  0.00     0.211 HD
ENDBRANCH   6  24
TORSDOF 5
ENDMDL
MODEL 3
REMARK VINA RESULT:    -7.858      2.287      3.536
REMARK INTER + INTRA:          -9.595
REMARK INTER:                  -9.271
REMARK INTRA:                  -0.324
REMARK UNBOUND:                -0.130
REMARK SMILES COc1cc(O)c2c(c1)O[C@H](c1ccc(O)cc1)[C@@H](O)C2=O
REMARK SMILES IDX 3 1 9 2 8 3 10 4 11 5 19 6 21 7 22 8 7 9 5 10 4 11 2 12 1 13
REMARK SMILES IDX 6 14 12 16 13 17 18 18 14 19 17 20 15 21 16 22 20 24
REMARK H PARENT 6 15 16 23 20 25
ROOT
ATOM      1  C   UNL     1      89.737  52.008  40.308  1.00  0.00     0.126 A 
ATOM      2  C   UNL     1      89.026  53.098  40.821  1.00  0.00     0.093 A 
ATOM      3  C   UNL     1      88.241  52.961  41.966  1.00  0.00     0.138 A 
ATOM      4  O   UNL     1      87.586  54.083  42.392  1.00  0.00    -0.481 OA
ATOM      5  C   UNL     1      86.428  53.817  43.206  1.00  0.00     0.240 C 
ATOM      6  C   UNL     1      86.769  52.909  44.393  1.00  0.00     0.231 C 
ATOM      7  C   UNL     1      87.408  51.638  43.867  1.00  0.00     0.202 C 
ATOM      8  O   UNL     1      87.321  50.559  44.456  1.00  0.00    -0.291 OA
ATOM      9  C   UNL     1      88.187  51.737  42.624  1.00  0.00     0.105 A 
ATOM     10  C   UNL     1      88.894  50.643  42.113  1.00  0.00     0.133 A 
ATOM     11  C   UNL     1      89.665  50.775  40.958  1.00  0.00     0.093 A 
ENDROOT
BRANCH   1  12
ATOM     12  O   UNL     1      90.458  52.278  39.178  1.00  0.00    -0.496 OA
ATOM     13  C   UNL     1      90.898  53.621  39.001  1.00  0.00     0.278 C 
ENDBRANCH   1  12
BRANCH  10  14
ATOM     14  O   UNL     1      88.883  49.407  42.703  1.00  0.00    -0.507 OA
ATOM     15  H   UNL     1      88.470  49.489  43.592  1.00  0.00     0.293 HD
ENDBRANCH  10  14
BRANCH   5  16
ATOM     16  C   UNL     1      85.876  55.157  43.677  1.00  0.00    -0.004 A 
ATOM     17  C   UNL     1      84.857  55.826  42.975  1.00  0.00     0.011 A 
ATOM     18  C   UNL     1      86.410  55.765  44.824  1.00  0.00     0.011 A 
ATOM     19  C   UNL     1      84.375  57.060  43.418  1.00  0.00     0.046 A 
ATOM     20  C   UNL     1      85.930  57.000  45.265  1.00  0.00     0.046 A 
ATOM     21  C   UNL     1      84.916  57.636  44.562  1.00  0.00     0.115 A 
BRANCH  21  22
ATOM     22  O   UNL     1      84.476  58.839  45.029  1.00  0.00    -0.508 OA
ATOM     23  H   UNL     1      84.938  59.545  44.547  1.00  0.00     0.293 HD
ENDBRANCH  21  22
ENDBRANCH   5  16
BRANCH   6  24
ATOM     24  O   UNL     1      85.600  52.534  45.130  1.00  0.00    -0.381 OA
ATOM     25  H   UNL     1      85.335  51.653  44.798  1.00  0.00     0.211 HD
ENDBRANCH   6  24
TORSDOF 5
ENDMDL
MODEL 4
REMARK VINA RESULT:    -7.710      5.254      6.774
REMARK INTER + INTRA:          -9.417
REMARK INTER:                  -9.204
REMARK INTRA:                  -0.213
REMARK UNBOUND:                -0.130
REMARK SMILES COc1cc(O)c2c(c1)O[C@H](c1ccc(O)cc1)[C@@H](O)C2=O
REMARK SMILES IDX 3 1 9 2 8 3 10 4 11 5 19 6 21 7 22 8 7 9 5 10 4 11 2 12 1 13
REMARK SMILES IDX 6 14 12 16 13 17 18 18 14 19 17 20 15 21 16 22 20 24
REMARK H PARENT 6 15 16 23 20 25
ROOT
ATOM      1  C   UNL     1      87.339  50.770  44.908  1.00  0.00     0.126 A 
ATOM      2  C   UNL     1      86.003  50.355  44.953  1.00  0.00     0.093 A 
ATOM      3  C   UNL     1      85.590  49.211  44.269  1.00  0.00     0.138 A 
ATOM      4  O   UNL     1      84.266  48.885  44.374  1.00  0.00    -0.481 OA
ATOM      5  C   UNL     1      83.773  48.066  43.298  1.00  0.00     0.240 C 
ATOM      6  C   UNL     1      84.626  46.804  43.111  1.00  0.00     0.231 C 
ATOM      7  C   UNL     1      86.069  47.220  42.905  1.00  0.00     0.202 C 
ATOM      8  O   UNL     1      86.866  46.547  42.247  1.00  0.00    -0.291 OA
ATOM      9  C   UNL     1      86.519  48.457  43.560  1.00  0.00     0.105 A 
ATOM     10  C   UNL     1      87.854  48.870  43.509  1.00  0.00     0.133 A 
ATOM     11  C   UNL     1      88.265  50.024  44.178  1.00  0.00     0.093 A 
ENDROOT
BRANCH   1  12
ATOM     12  O   UNL     1      87.605  51.910  45.615  1.00  0.00    -0.496 OA
ATOM     13  C   UNL     1      86.505  52.772  45.884  1.00  0.00     0.278 C 
ENDBRANCH   1  12
BRANCH  10  14
ATOM     14  O   UNL     1      88.822  48.182  42.826  1.00  0.00    -0.507 OA
ATOM     15  H   UNL     1      88.710  47.223  43.008  1.00  0.00     0.293 HD
ENDBRANCH  10  14
BRANCH   5  16
ATOM     16  C   UNL     1      82.325  47.710  43.613  1.00  0.00    -0.004 A 
ATOM     17  C   UNL     1      81.269  48.600  43.344  1.00  0.00     0.011 A 
ATOM     18  C   UNL     1      82.026  46.478  44.216  1.00  0.00     0.011 A 
ATOM     19  C   UNL     1      79.950  48.258  43.654  1.00  0.00     0.046 A 
ATOM     20  C   UNL     1      80.708  46.138  44.527  1.00  0.00     0.046 A 
ATOM     21  C   UNL     1      79.681  47.028  44.242  1.00  0.00     0.115 A 
BRANCH  21  22
ATOM     22  O   UNL     1      78.409  46.654  44.561  1.00  0.00    -0.508 OA
ATOM     23  H   UNL     1      78.329  45.694  44.436  1.00  0.00     0.293 HD
ENDBRANCH  21  22
ENDBRANCH   5  16
BRANCH   6  24
ATOM     24  O   UNL     1      84.221  46.053  41.962  1.00  0.00    -0.381 OA
ATOM     25  H   UNL     1      85.043  45.776  41.510  1.00  0.00     0.211 HD
ENDBRANCH   6  24
TORSDOF 5
ENDMDL
MODEL 5
REMARK VINA RESULT:    -7.682      2.673      3.629
REMARK INTER + INTRA:          -9.384
REMARK INTER:                  -9.013
REMARK INTRA:                  -0.371
REMARK UNBOUND:                -0.130
REMARK SMILES COc1cc(O)c2c(c1)O[C@H](c1ccc(O)cc1)[C@@H](O)C2=O
REMARK SMILES IDX 3 1 9 2 8 3 10 4 11 5 19 6 21 7 22 8 7 9 5 10 4 11 2 12 1 13
REMARK SMILES IDX 6 14 12 16 13 17 18 18 14 19 17 20 15 21 16 22 20 24
REMARK H PARENT 6 15 16 23 20 25
ROOT
ATOM      1  C   UNL     1      85.976  48.093  43.741  1.00  0.00     0.126 A 
ATOM      2  C   UNL     1      85.673  49.450  43.891  1.00  0.00     0.093 A 
ATOM      3  C   UNL     1      86.241  50.404  43.046  1.00  0.00     0.138 A 
ATOM      4  O   UNL     1      85.883  51.704  43.269  1.00  0.00    -0.481 OA
ATOM      5  C   UNL     1      86.828  52.670  42.773  1.00  0.00     0.240 C 
ATOM      6  C   UNL     1      87.140  52.445  41.288  1.00  0.00     0.231 C 
ATOM      7  C   UNL     1      87.621  51.019  41.103  1.00  0.00     0.202 C 
ATOM      8  O   UNL     1      88.399  50.693  40.205  1.00  0.00    -0.291 OA
ATOM      9  C   UNL     1      87.092  50.001  42.023  1.00  0.00     0.105 A 
ATOM     10  C   UNL     1      87.400  48.645  41.871  1.00  0.00     0.133 A 
ATOM     11  C   UNL     1      86.848  47.692  42.728  1.00  0.00     0.093 A 
ENDROOT
BRANCH   1  12
ATOM     12  O   UNL     1      85.360  47.269  44.642  1.00  0.00    -0.496 OA
ATOM     13  C   UNL     1      85.244  45.896  44.285  1.00  0.00     0.278 C 
ENDBRANCH   1  12
BRANCH  10  14
ATOM     14  O   UNL     1      88.235  48.175  40.891  1.00  0.00    -0.507 OA
ATOM     15  H   UNL     1      89.153  48.165  41.242  1.00  0.00     0.293 HD
ENDBRANCH  10  14
BRANCH   5  16
ATOM     16  C   UNL     1      86.240  54.056  43.008  1.00  0.00    -0.004 A 
ATOM     17  C   UNL     1      86.820  54.963  43.914  1.00  0.00     0.011 A 
ATOM     18  C   UNL     1      85.071  54.441  42.332  1.00  0.00     0.011 A 
ATOM     19  C   UNL     1      86.257  56.224  44.124  1.00  0.00     0.046 A 
ATOM     20  C   UNL     1      84.507  55.701  42.543  1.00  0.00     0.046 A 
ATOM     21  C   UNL     1      85.104  56.582  43.434  1.00  0.00     0.115 A 
BRANCH  21  22
ATOM     22  O   UNL     1      84.521  57.802  43.609  1.00  0.00    -0.508 OA
ATOM     23  H   UNL     1      84.220  58.127  42.744  1.00  0.00     0.293 HD
ENDBRANCH  21  22
ENDBRANCH   5  16
BRANCH   6  24
ATOM     24  O   UNL     1      88.175  53.317  40.822  1.00  0.00    -0.381 OA
ATOM     25  H   UNL     1      88.777  53.459  41.579  1.00  0.00     0.211 HD
ENDBRANCH   6  24
TORSDOF 5
ENDMDL
MODEL 6
REMARK VINA RESULT:    -7.662      4.176      7.102
REMARK INTER + INTRA:          -9.360
REMARK INTER:                  -9.343
REMARK INTRA:                  -0.017
REMARK UNBOUND:                -0.130
REMARK SMILES COc1cc(O)c2c(c1)O[C@H](c1ccc(O)cc1)[C@@H](O)C2=O
REMARK SMILES IDX 3 1 9 2 8 3 10 4 11 5 19 6 21 7 22 8 7 9 5 10 4 11 2 12 1 13
REMARK SMILES IDX 6 14 12 16 13 17 18 18 14 19 17 20 15 21 16 22 20 24
REMARK H PARENT 6 15 16 23 20 25
ROOT
ATOM      1  C   UNL     1      84.099  45.807  43.812  1.00  0.00     0.126 A 
ATOM      2  C   UNL     1      84.698  47.026  43.477  1.00  0.00     0.093 A 
ATOM      3  C   UNL     1      86.018  47.072  43.026  1.00  0.00     0.138 A 
ATOM      4  O   UNL     1      86.513  48.309  42.721  1.00  0.00    -0.481 OA
ATOM      5  C   UNL     1      87.950  48.397  42.771  1.00  0.00     0.240 C 
ATOM      6  C   UNL     1      88.613  47.322  41.902  1.00  0.00     0.231 C 
ATOM      7  C   UNL     1      88.103  45.962  42.338  1.00  0.00     0.202 C 
ATOM      8  O   UNL     1      88.774  44.934  42.223  1.00  0.00    -0.291 OA
ATOM      9  C   UNL     1      86.738  45.891  42.880  1.00  0.00     0.105 A 
ATOM     10  C   UNL     1      86.145  44.670  43.217  1.00  0.00     0.133 A 
ATOM     11  C   UNL     1      84.832  44.626  43.685  1.00  0.00     0.093 A 
ENDROOT
BRANCH   1  12
ATOM     12  O   UNL     1      82.807  45.907  44.247  1.00  0.00    -0.496 OA
ATOM     13  C   UNL     1      81.966  46.829  43.562  1.00  0.00     0.278 C 
ENDBRANCH   1  12
BRANCH  10  14
ATOM     14  O   UNL     1      86.796  43.470  43.105  1.00  0.00    -0.507 OA
ATOM     15  H   UNL     1      87.308  43.470  42.266  1.00  0.00     0.293 HD
ENDBRANCH  10  14
BRANCH   5  16
ATOM     16  C   UNL     1      88.343  49.796  42.312  1.00  0.00    -0.004 A 
ATOM     17  C   UNL     1      89.136  50.005  41.169  1.00  0.00     0.011 A 
ATOM     18  C   UNL     1      87.935  50.914  43.058  1.00  0.00     0.011 A 
ATOM     19  C   UNL     1      89.495  51.296  40.774  1.00  0.00     0.046 A 
ATOM     20  C   UNL     1      88.296  52.204  42.665  1.00  0.00     0.046 A 
ATOM     21  C   UNL     1      89.070  52.386  41.526  1.00  0.00     0.115 A 
BRANCH  21  22
ATOM     22  O   UNL     1      89.398  53.663  41.177  1.00  0.00    -0.508 OA
ATOM     23  H   UNL     1      88.816  54.273  41.660  1.00  0.00     0.293 HD
ENDBRANCH  21  22
ENDBRANCH   5  16
BRANCH   6  24
ATOM     24  O   UNL     1      90.036  47.320  42.049  1.00  0.00    -0.381 OA
ATOM     25  H   UNL     1      90.216  47.144  42.994  1.00  0.00     0.211 HD
ENDBRANCH   6  24
TORSDOF 5
ENDMDL
MODEL 7
REMARK VINA RESULT:    -7.639      3.474      6.526
REMARK INTER + INTRA:          -9.331
REMARK INTER:                  -9.007
REMARK INTRA:                  -0.324
REMARK UNBOUND:                -0.130
REMARK SMILES COc1cc(O)c2c(c1)O[C@H](c1ccc(O)cc1)[C@@H](O)C2=O
REMARK SMILES IDX 3 1 9 2 8 3 10 4 11 5 19 6 21 7 22 8 7 9 5 10 4 11 2 12 1 13
REMARK SMILES IDX 6 14 12 16 13 17 18 18 14 19 17 20 15 21 16 22 20 24
REMARK H PARENT 6 15 16 23 20 25
ROOT
ATOM      1  C   UNL     1      81.676  51.417  42.368  1.00  0.00     0.126 A 
ATOM      2  C   UNL     1      82.932  50.860  42.629  1.00  0.00     0.093 A 
ATOM      3  C   UNL     1      84.095  51.475  42.161  1.00  0.00     0.138 A 
ATOM      4  O   UNL     1      85.274  50.856  42.468  1.00  0.00    -0.481 OA
ATOM      5  C   UNL     1      86.360  51.183  41.581  1.00  0.00     0.240 C 
ATOM      6  C   UNL     1      86.560  52.700  41.468  1.00  0.00     0.231 C 
ATOM      7  C   UNL     1      85.252  53.332  41.036  1.00  0.00     0.202 C 
ATOM      8  O   UNL     1      85.203  54.378  40.386  1.00  0.00    -0.291 OA
ATOM      9  C   UNL     1      84.008  52.670  41.456  1.00  0.00     0.105 A 
ATOM     10  C   UNL     1      82.754  53.229  41.191  1.00  0.00     0.133 A 
ATOM     11  C   UNL     1      81.590  52.606  41.642  1.00  0.00     0.093 A 
ENDROOT
BRANCH   1  12
ATOM     12  O   UNL     1      80.622  50.708  42.875  1.00  0.00    -0.496 OA
ATOM     13  C   UNL     1      80.860  49.342  43.197  1.00  0.00     0.278 C 
ENDBRANCH   1  12
BRANCH  10  14
ATOM     14  O   UNL     1      82.591  54.400  40.497  1.00  0.00    -0.507 OA
ATOM     15  H   UNL     1      82.024  55.001  41.029  1.00  0.00     0.293 HD
ENDBRANCH  10  14
BRANCH   5  16
ATOM     16  C   UNL     1      87.614  50.500  42.112  1.00  0.00    -0.004 A 
ATOM     17  C   UNL     1      88.591  49.969  41.250  1.00  0.00     0.011 A 
ATOM     18  C   UNL     1      87.799  50.363  43.498  1.00  0.00     0.011 A 
ATOM     19  C   UNL     1      89.726  49.335  41.759  1.00  0.00     0.046 A 
ATOM     20  C   UNL     1      88.933  49.727  44.007  1.00  0.00     0.046 A 
ATOM     21  C   UNL     1      89.888  49.221  43.135  1.00  0.00     0.115 A 
BRANCH  21  22
ATOM     22  O   UNL     1      90.981  48.610  43.676  1.00  0.00    -0.508 OA
ATOM     23  H   UNL     1      90.757  47.682  43.855  1.00  0.00     0.293 HD
ENDBRANCH  21  22
ENDBRANCH   5  16
BRANCH   6  24
ATOM     24  O   UNL     1      87.549  53.035  40.489  1.00  0.00    -0.381 OA
ATOM     25  H   UNL     1      87.475  52.366  39.780  1.00  0.00     0.211 HD
ENDBRANCH   6  24
TORSDOF 5
ENDMDL
MODEL 8
REMARK VINA RESULT:    -7.565      1.905      3.444
REMARK INTER + INTRA:          -9.243
REMARK INTER:                  -9.018
REMARK INTRA:                  -0.224
REMARK UNBOUND:                -0.130
REMARK SMILES COc1cc(O)c2c(c1)O[C@H](c1ccc(O)cc1)[C@@H](O)C2=O
REMARK SMILES IDX 3 1 9 2 8 3 10 4 11 5 19 6 21 7 22 8 7 9 5 10 4 11 2 12 1 13
REMARK SMILES IDX 6 14 12 16 13 17 18 18 14 19 17 20 15 21 16 22 20 24
REMARK H PARENT 6 15 16 23 20 25
ROOT
ATOM      1  C   UNL     1      89.046  52.549  40.879  1.00  0.00     0.126 A 
ATOM      2  C   UNL     1      88.364  52.936  42.037  1.00  0.00     0.093 A 
ATOM      3  C   UNL     1      87.900  51.981  42.943  1.00  0.00     0.138 A 
ATOM      4  O   UNL     1      87.247  52.456  44.046  1.00  0.00    -0.481 OA
ATOM      5  C   UNL     1      86.358  51.504  44.661  1.00  0.00     0.240 C 
ATOM      6  C   UNL     1      87.077  50.188  44.985  1.00  0.00     0.231 C 
ATOM      7  C   UNL     1      87.707  49.652  43.714  1.00  0.00     0.202 C 
ATOM      8  O   UNL     1      87.887  48.448  43.520  1.00  0.00    -0.291 OA
ATOM      9  C   UNL     1      88.145  50.632  42.709  1.00  0.00     0.105 A 
ATOM     10  C   UNL     1      88.824  50.241  41.551  1.00  0.00     0.133 A 
ATOM     11  C   UNL     1      89.272  51.194  40.636  1.00  0.00     0.093 A 
ENDROOT
BRANCH   1  12
ATOM     12  O   UNL     1      89.436  53.585  40.075  1.00  0.00    -0.496 OA
ATOM     13  C   UNL     1      90.822  53.673  39.765  1.00  0.00     0.278 C 
ENDBRANCH   1  12
BRANCH  10  14
ATOM     14  O   UNL     1      89.095  48.931  41.252  1.00  0.00    -0.507 OA
ATOM     15  H   UNL     1      89.622  48.903  40.423  1.00  0.00     0.293 HD
ENDBRANCH  10  14
BRANCH   5  16
ATOM     16  C   UNL     1      85.791  52.147  45.920  1.00  0.00    -0.004 A 
ATOM     17  C   UNL     1      86.368  51.933  47.185  1.00  0.00     0.011 A 
ATOM     18  C   UNL     1      84.645  52.954  45.835  1.00  0.00     0.011 A 
ATOM     19  C   UNL     1      85.823  52.522  48.329  1.00  0.00     0.046 A 
ATOM     20  C   UNL     1      84.099  53.541  46.978  1.00  0.00     0.046 A 
ATOM     21  C   UNL     1      84.693  53.323  48.214  1.00  0.00     0.115 A 
BRANCH  21  22
ATOM     22  O   UNL     1      84.128  53.918  49.304  1.00  0.00    -0.508 OA
ATOM     23  H   UNL     1      83.339  54.406  49.015  1.00  0.00     0.293 HD
ENDBRANCH  21  22
ENDBRANCH   5  16
BRANCH   6  24
ATOM     24  O   UNL     1      86.171  49.193  45.474  1.00  0.00    -0.381 OA
ATOM     25  H   UNL     1      86.699  48.593  46.038  1.00  0.00     0.211 HD
ENDBRANCH   6  24
TORSDOF 5
ENDMDL
MODEL 9
REMARK VINA RESULT:    -7.516      5.558      8.724
REMARK INTER + INTRA:          -9.183
REMARK INTER:                  -9.054
REMARK INTRA:                  -0.130
REMARK UNBOUND:                -0.130
REMARK SMILES COc1cc(O)c2c(c1)O[C@H](c1ccc(O)cc1)[C@@H](O)C2=O
REMARK SMILES IDX 3 1 9 2 8 3 10 4 11 5 19 6 21 7 22 8 7 9 5 10 4 11 2 12 1 13
REMARK SMILES IDX 6 14 12 16 13 17 18 18 14 19 17 20 15 21 16 22 20 24
REMARK H PARENT 6 15 16 23 20 25
ROOT
ATOM      1  C   UNL     1      80.879  48.236  43.493  1.00  0.00     0.126 A 
ATOM      2  C   UNL     1      81.899  47.278  43.480  1.00  0.00     0.093 A 
ATOM      3  C   UNL     1      83.239  47.666  43.459  1.00  0.00     0.138 A 
ATOM      4  O   UNL     1      84.162  46.658  43.449  1.00  0.00    -0.481 OA
ATOM      5  C   UNL     1      85.445  47.038  42.917  1.00  0.00     0.240 C 
ATOM      6  C   UNL     1      86.007  48.277  43.625  1.00  0.00     0.231 C 
ATOM      7  C   UNL     1      84.987  49.396  43.530  1.00  0.00     0.202 C 
ATOM      8  O   UNL     1      85.308  50.586  43.524  1.00  0.00    -0.291 OA
ATOM      9  C   UNL     1      83.567  49.017  43.483  1.00  0.00     0.105 A 
ATOM     10  C   UNL     1      82.551  49.977  43.492  1.00  0.00     0.133 A 
ATOM     11  C   UNL     1      81.211  49.591  43.495  1.00  0.00     0.093 A 
ENDROOT
BRANCH   1  12
ATOM     12  O   UNL     1      79.613  47.719  43.504  1.00  0.00    -0.496 OA
ATOM     13  C   UNL     1      79.398  46.555  44.294  1.00  0.00     0.278 C 
ENDBRANCH   1  12
BRANCH  10  14
ATOM     14  O   UNL     1      82.799  51.325  43.509  1.00  0.00    -0.507 OA
ATOM     15  H   UNL     1      81.950  51.797  43.659  1.00  0.00     0.293 HD
ENDBRANCH  10  14
BRANCH   5  16
ATOM     16  C   UNL     1      86.381  45.845  43.068  1.00  0.00    -0.004 A 
ATOM     17  C   UNL     1      87.605  45.772  42.378  1.00  0.00     0.011 A 
ATOM     18  C   UNL     1      86.011  44.770  43.892  1.00  0.00     0.011 A 
ATOM     19  C   UNL     1      88.441  44.662  42.522  1.00  0.00     0.046 A 
ATOM     20  C   UNL     1      86.847  43.660  44.034  1.00  0.00     0.046 A 
ATOM     21  C   UNL     1      88.055  43.616  43.351  1.00  0.00     0.115 A 
BRANCH  21  22
ATOM     22  O   UNL     1      88.840  42.514  43.520  1.00  0.00    -0.508 OA
ATOM     23  H   UNL     1      89.091  42.177  42.644  1.00  0.00     0.293 HD
ENDBRANCH  21  22
ENDBRANCH   5  16
BRANCH   6  24
ATOM     24  O   UNL     1      87.216  48.738  43.015  1.00  0.00    -0.381 OA
ATOM     25  H   UNL     1      87.925  48.135  43.316  1.00  0.00     0.211 HD
ENDBRANCH   6  24
TORSDOF 5
ENDMDL
