MODEL 1
REMARK VINA RESULT:   -10.006      0.000      0.000
REMARK INTER + INTRA:         -15.165
REMARK INTER:                 -13.214
REMARK INTRA:                  -1.951
REMARK UNBOUND:                -1.064
REMARK SMILES CC(C)=CCc1c([C@@H]2CC(=O)c3c(O)cc(O)cc3O2)cc(O)c(O)c1CC=C(C)C
REMARK SMILES IDX 6 1 7 2 21 3 22 4 24 5 26 6 5 7 4 8 2 9 1 10 3 11 8 12 9 13
REMARK SMILES IDX 20 14 10 15 19 16 11 17 12 18 18 19 13 20 16 21 15 22 14 23
REMARK SMILES IDX 17 25 27 27 28 28 29 29 30 30 31 31 25 32 23 34
REMARK H PARENT 14 24 17 26 25 33 23 35
ROOT
ATOM      1  C   UNL     1      84.735  53.018  43.734  1.00  0.00    -0.030 A 
ATOM      2  C   UNL     1      83.882  52.103  43.037  1.00  0.00     0.001 A 
ATOM      3  C   UNL     1      83.383  52.460  41.761  1.00  0.00     0.058 A 
ATOM      4  C   UNL     1      83.707  53.678  41.189  1.00  0.00     0.158 A 
ATOM      5  C   UNL     1      84.517  54.577  41.867  1.00  0.00     0.161 A 
ATOM      6  C   UNL     1      85.040  54.283  43.134  1.00  0.00     0.005 A 
ENDROOT
BRANCH   1   7
ATOM      7  C   UNL     1      85.304  52.693  45.114  1.00  0.00     0.063 C 
BRANCH   7   8
ATOM      8  C   UNL     1      84.391  53.103  46.239  1.00  0.00    -0.024 C 
ATOM      9  C   UNL     1      84.616  53.000  47.564  1.00  0.00    -0.080 C 
ATOM     10  C   UNL     1      83.571  53.442  48.555  1.00  0.00     0.039 C 
ATOM     11  C   UNL     1      85.875  52.470  48.194  1.00  0.00     0.039 C 
ENDBRANCH   7   8
ENDBRANCH   1   7
BRANCH   2  12
ATOM     12  C   UNL     1      83.389  50.751  43.567  1.00  0.00     0.211 C 
ATOM     13  C   UNL     1      84.283  49.615  43.084  1.00  0.00     0.131 C 
ATOM     14  O   UNL     1      82.008  50.534  43.268  1.00  0.00    -0.484 OA
ATOM     15  C   UNL     1      83.795  48.333  43.688  1.00  0.00     0.174 C 
ATOM     16  C   UNL     1      81.533  49.317  43.677  1.00  0.00     0.138 A 
ATOM     17  O   UNL     1      84.538  47.386  43.940  1.00  0.00    -0.294 OA
ATOM     18  C   UNL     1      82.346  48.209  43.921  1.00  0.00     0.102 A 
ATOM     19  C   UNL     1      80.151  49.208  43.820  1.00  0.00     0.093 A 
ATOM     20  C   UNL     1      81.773  47.002  44.341  1.00  0.00     0.133 A 
ATOM     21  C   UNL     1      79.594  48.002  44.235  1.00  0.00     0.123 A 
ATOM     22  C   UNL     1      80.394  46.895  44.503  1.00  0.00     0.093 A 
BRANCH  20  23
ATOM     23  O   UNL     1      82.510  45.877  44.603  1.00  0.00    -0.507 OA
ATOM     24  H   UNL     1      82.728  45.871  45.563  1.00  0.00     0.293 HD
ENDBRANCH  20  23
BRANCH  21  25
ATOM     25  O   UNL     1      78.237  47.944  44.369  1.00  0.00    -0.508 OA
ATOM     26  H   UNL     1      77.829  48.500  43.684  1.00  0.00     0.293 HD
ENDBRANCH  21  25
ENDBRANCH   2  12
BRANCH   6  27
ATOM     27  C   UNL     1      85.929  55.327  43.795  1.00  0.00     0.067 C 
BRANCH  27  28
ATOM     28  C   UNL     1      85.136  56.382  44.527  1.00  0.00    -0.023 C 
ATOM     29  C   UNL     1      85.234  56.757  45.818  1.00  0.00    -0.080 C 
ATOM     30  C   UNL     1      86.178  56.165  46.829  1.00  0.00     0.039 C 
ATOM     31  C   UNL     1      84.344  57.841  46.369  1.00  0.00     0.039 C 
ENDBRANCH  27  28
ENDBRANCH   6  27
BRANCH   5  32
ATOM     32  O   UNL     1      84.789  55.777  41.261  1.00  0.00    -0.504 OA
ATOM     33  H   UNL     1      84.248  55.770  40.445  1.00  0.00     0.293 HD
ENDBRANCH   5  32
BRANCH   4  34
ATOM     34  O   UNL     1      83.239  54.046  39.957  1.00  0.00    -0.504 OA
ATOM     35  H   UNL     1      83.511  53.373  39.311  1.00  0.00     0.293 HD
ENDBRANCH   4  34
TORSDOF 9
ENDMDL
MODEL 2
REMARK VINA RESULT:    -9.990      3.860      7.206
REMARK INTER + INTRA:         -15.142
REMARK INTER:                 -13.525
REMARK INTRA:                  -1.617
REMARK UNBOUND:                -1.064
REMARK SMILES CC(C)=CCc1c([C@@H]2CC(=O)c3c(O)cc(O)cc3O2)cc(O)c(O)c1CC=C(C)C
REMARK SMILES IDX 6 1 7 2 21 3 22 4 24 5 26 6 5 7 4 8 2 9 1 10 3 11 8 12 9 13
REMARK SMILES IDX 20 14 10 15 19 16 11 17 12 18 18 19 13 20 16 21 15 22 14 23
REMARK SMILES IDX 17 25 27 27 28 28 29 29 30 30 31 31 25 32 23 34
REMARK H PARENT 14 24 17 26 25 33 23 35
ROOT
ATOM      1  C   UNL     1      86.394  46.827  42.786  1.00  0.00    -0.030 A 
ATOM      2  C   UNL     1      85.313  46.190  43.478  1.00  0.00     0.001 A 
ATOM      3  C   UNL     1      85.444  44.835  43.865  1.00  0.00     0.058 A 
ATOM      4  C   UNL     1      86.597  44.125  43.580  1.00  0.00     0.158 A 
ATOM      5  C   UNL     1      87.641  44.730  42.894  1.00  0.00     0.161 A 
ATOM      6  C   UNL     1      87.570  46.067  42.480  1.00  0.00     0.005 A 
ENDROOT
BRANCH   1   7
ATOM      7  C   UNL     1      86.314  48.285  42.339  1.00  0.00     0.063 C 
BRANCH   7   8
ATOM      8  C   UNL     1      86.853  49.245  43.367  1.00  0.00    -0.024 C 
ATOM      9  C   UNL     1      87.308  50.498  43.166  1.00  0.00    -0.080 C 
ATOM     10  C   UNL     1      87.838  51.314  44.317  1.00  0.00     0.039 C 
ATOM     11  C   UNL     1      87.336  51.213  41.843  1.00  0.00     0.039 C 
ENDBRANCH   7   8
ENDBRANCH   1   7
BRANCH   2  12
ATOM     12  C   UNL     1      83.957  46.827  43.808  1.00  0.00     0.211 C 
ATOM     13  C   UNL     1      82.877  45.764  43.960  1.00  0.00     0.131 C 
ATOM     14  O   UNL     1      83.605  47.846  42.870  1.00  0.00    -0.484 OA
ATOM     15  C   UNL     1      81.595  46.438  44.350  1.00  0.00     0.174 C 
ATOM     16  C   UNL     1      82.378  48.410  43.094  1.00  0.00     0.138 A 
ATOM     17  O   UNL     1      80.733  45.890  45.034  1.00  0.00    -0.294 OA
ATOM     18  C   UNL     1      81.361  47.792  43.822  1.00  0.00     0.102 A 
ATOM     19  C   UNL     1      82.159  49.663  42.522  1.00  0.00     0.093 A 
ATOM     20  C   UNL     1      80.136  48.447  44.004  1.00  0.00     0.133 A 
ATOM     21  C   UNL     1      80.936  50.301  42.707  1.00  0.00     0.123 A 
ATOM     22  C   UNL     1      79.921  49.706  43.450  1.00  0.00     0.093 A 
BRANCH  20  23
ATOM     23  O   UNL     1      79.097  47.902  44.711  1.00  0.00    -0.507 OA
ATOM     24  H   UNL     1      78.310  48.482  44.594  1.00  0.00     0.293 HD
ENDBRANCH  20  23
BRANCH  21  25
ATOM     25  O   UNL     1      80.770  51.529  42.136  1.00  0.00    -0.508 OA
ATOM     26  H   UNL     1      80.874  52.211  42.820  1.00  0.00     0.293 HD
ENDBRANCH  21  25
ENDBRANCH   2  12
BRANCH   6  27
ATOM     27  C   UNL     1      88.769  46.647  41.744  1.00  0.00     0.067 C 
BRANCH  27  28
ATOM     28  C   UNL     1      89.840  47.143  42.685  1.00  0.00    -0.023 C 
ATOM     29  C   UNL     1      90.560  48.281  42.608  1.00  0.00    -0.080 C 
ATOM     30  C   UNL     1      90.447  49.313  41.520  1.00  0.00     0.039 C 
ATOM     31  C   UNL     1      91.595  48.602  43.655  1.00  0.00     0.039 C 
ENDBRANCH  27  28
ENDBRANCH   6  27
BRANCH   5  32
ATOM     32  O   UNL     1      88.751  43.972  42.621  1.00  0.00    -0.504 OA
ATOM     33  H   UNL     1      88.427  43.264  42.029  1.00  0.00     0.293 HD
ENDBRANCH   5  32
BRANCH   4  34
ATOM     34  O   UNL     1      86.750  42.815  43.945  1.00  0.00    -0.504 OA
ATOM     35  H   UNL     1      85.995  42.309  43.599  1.00  0.00     0.293 HD
ENDBRANCH   4  34
TORSDOF 9
ENDMDL
MODEL 3
REMARK VINA RESULT:    -9.417      1.156      2.412
REMARK INTER + INTRA:         -14.335
REMARK INTER:                 -12.689
REMARK INTRA:                  -1.645
REMARK UNBOUND:                -1.064
REMARK SMILES CC(C)=CCc1c([C@@H]2CC(=O)c3c(O)cc(O)cc3O2)cc(O)c(O)c1CC=C(C)C
REMARK SMILES IDX 6 1 7 2 21 3 22 4 24 5 26 6 5 7 4 8 2 9 1 10 3 11 8 12 9 13
REMARK SMILES IDX 20 14 10 15 19 16 11 17 12 18 18 19 13 20 16 21 15 22 14 23
REMARK SMILES IDX 17 25 27 27 28 28 29 29 30 30 31 31 25 32 23 34
REMARK H PARENT 14 24 17 26 25 33 23 35
ROOT
ATOM      1  C   UNL     1      84.627  52.791  43.284  1.00  0.00    -0.030 A 
ATOM      2  C   UNL     1      83.877  52.019  42.339  1.00  0.00     0.001 A 
ATOM      3  C   UNL     1      83.488  52.615  41.115  1.00  0.00     0.058 A 
ATOM      4  C   UNL     1      83.821  53.927  40.829  1.00  0.00     0.158 A 
ATOM      5  C   UNL     1      84.531  54.687  41.747  1.00  0.00     0.161 A 
ATOM      6  C   UNL     1      84.941  54.155  42.978  1.00  0.00     0.005 A 
ENDROOT
BRANCH   1   7
ATOM      7  C   UNL     1      85.075  52.207  44.623  1.00  0.00     0.063 C 
BRANCH   7   8
ATOM      8  C   UNL     1      84.259  52.708  45.785  1.00  0.00    -0.024 C 
ATOM      9  C   UNL     1      84.641  52.820  47.073  1.00  0.00    -0.080 C 
ATOM     10  C   UNL     1      83.677  53.324  48.116  1.00  0.00     0.039 C 
ATOM     11  C   UNL     1      86.006  52.486  47.609  1.00  0.00     0.039 C 
ENDBRANCH   7   8
ENDBRANCH   1   7
BRANCH   2  12
ATOM     12  C   UNL     1      83.385  50.580  42.540  1.00  0.00     0.211 C 
ATOM     13  C   UNL     1      82.051  50.557  43.274  1.00  0.00     0.131 C 
ATOM     14  O   UNL     1      84.376  49.762  43.166  1.00  0.00    -0.484 OA
ATOM     15  C   UNL     1      81.588  49.134  43.380  1.00  0.00     0.174 C 
ATOM     16  C   UNL     1      83.965  48.480  43.413  1.00  0.00     0.138 A 
ATOM     17  O   UNL     1      80.400  48.818  43.414  1.00  0.00    -0.294 OA
ATOM     18  C   UNL     1      82.626  48.098  43.509  1.00  0.00     0.102 A 
ATOM     19  C   UNL     1      84.971  47.533  43.603  1.00  0.00     0.093 A 
ATOM     20  C   UNL     1      82.298  46.761  43.762  1.00  0.00     0.133 A 
ATOM     21  C   UNL     1      84.631  46.207  43.856  1.00  0.00     0.123 A 
ATOM     22  C   UNL     1      83.300  45.809  43.932  1.00  0.00     0.093 A 
BRANCH  20  23
ATOM     23  O   UNL     1      81.006  46.316  43.864  1.00  0.00    -0.507 OA
ATOM     24  H   UNL     1      80.490  46.700  43.118  1.00  0.00     0.293 HD
ENDBRANCH  20  23
BRANCH  21  25
ATOM     25  O   UNL     1      85.648  45.315  44.027  1.00  0.00    -0.508 OA
ATOM     26  H   UNL     1      85.586  44.932  44.919  1.00  0.00     0.293 HD
ENDBRANCH  21  25
ENDBRANCH   2  12
BRANCH   6  27
ATOM     27  C   UNL     1      85.726  55.061  43.916  1.00  0.00     0.067 C 
BRANCH  27  28
ATOM     28  C   UNL     1      84.832  55.970  44.723  1.00  0.00    -0.023 C 
ATOM     29  C   UNL     1      85.009  56.414  45.984  1.00  0.00    -0.080 C 
ATOM     30  C   UNL     1      86.168  56.064  46.878  1.00  0.00     0.039 C 
ATOM     31  C   UNL     1      83.993  57.325  46.624  1.00  0.00     0.039 C 
ENDBRANCH  27  28
ENDBRANCH   6  27
BRANCH   5  32
ATOM     32  O   UNL     1      84.815  55.988  41.419  1.00  0.00    -0.504 OA
ATOM     33  H   UNL     1      84.003  56.483  41.647  1.00  0.00     0.293 HD
ENDBRANCH   5  32
BRANCH   4  34
ATOM     34  O   UNL     1      83.458  54.526  39.653  1.00  0.00    -0.504 OA
ATOM     35  H   UNL     1      83.155  55.429  39.848  1.00  0.00     0.293 HD
ENDBRANCH   4  34
TORSDOF 9
ENDMDL
MODEL 4
REMARK VINA RESULT:    -9.356      3.306      4.532
REMARK INTER + INTRA:         -14.248
REMARK INTER:                 -12.639
REMARK INTRA:                  -1.610
REMARK UNBOUND:                -1.064
REMARK SMILES CC(C)=CCc1c([C@@H]2CC(=O)c3c(O)cc(O)cc3O2)cc(O)c(O)c1CC=C(C)C
REMARK SMILES IDX 6 1 7 2 21 3 22 4 24 5 26 6 5 7 4 8 2 9 1 10 3 11 8 12 9 13
REMARK SMILES IDX 20 14 10 15 19 16 11 17 12 18 18 19 13 20 16 21 15 22 14 23
REMARK SMILES IDX 17 25 27 27 28 28 29 29 30 30 31 31 25 32 23 34
REMARK H PARENT 14 24 17 26 25 33 23 35
ROOT
ATOM      1  C   UNL     1      86.030  51.385  43.557  1.00  0.00    -0.030 A 
ATOM      2  C   UNL     1      86.794  50.617  42.621  1.00  0.00     0.001 A 
ATOM      3  C   UNL     1      87.159  51.200  41.384  1.00  0.00     0.058 A 
ATOM      4  C   UNL     1      86.783  52.495  41.073  1.00  0.00     0.158 A 
ATOM      5  C   UNL     1      86.027  53.239  41.967  1.00  0.00     0.161 A 
ATOM      6  C   UNL     1      85.631  52.716  43.206  1.00  0.00     0.005 A 
ENDROOT
BRANCH   1   7
ATOM      7  C   UNL     1      85.603  50.813  44.908  1.00  0.00     0.063 C 
BRANCH   7   8
ATOM      8  C   UNL     1      86.766  50.358  45.748  1.00  0.00    -0.024 C 
ATOM      9  C   UNL     1      87.050  50.704  47.020  1.00  0.00    -0.080 C 
ATOM     10  C   UNL     1      88.281  50.166  47.703  1.00  0.00     0.039 C 
ATOM     11  C   UNL     1      86.217  51.612  47.881  1.00  0.00     0.039 C 
ENDBRANCH   7   8
ENDBRANCH   1   7
BRANCH   2  12
ATOM     12  C   UNL     1      87.229  49.156  42.798  1.00  0.00     0.211 C 
ATOM     13  C   UNL     1      88.276  48.768  41.762  1.00  0.00     0.131 C 
ATOM     14  O   UNL     1      86.111  48.266  42.817  1.00  0.00    -0.484 OA
ATOM     15  C   UNL     1      88.712  47.358  42.028  1.00  0.00     0.174 C 
ATOM     16  C   UNL     1      86.452  46.945  42.923  1.00  0.00     0.138 A 
ATOM     17  O   UNL     1      89.839  46.944  41.760  1.00  0.00    -0.294 OA
ATOM     18  C   UNL     1      87.704  46.436  42.578  1.00  0.00     0.102 A 
ATOM     19  C   UNL     1      85.455  46.083  43.379  1.00  0.00     0.093 A 
ATOM     20  C   UNL     1      87.966  45.068  42.723  1.00  0.00     0.133 A 
ATOM     21  C   UNL     1      85.727  44.725  43.515  1.00  0.00     0.123 A 
ATOM     22  C   UNL     1      86.979  44.208  43.196  1.00  0.00     0.093 A 
BRANCH  20  23
ATOM     23  O   UNL     1      89.173  44.502  42.409  1.00  0.00    -0.507 OA
ATOM     24  H   UNL     1      89.885  45.116  42.701  1.00  0.00     0.293 HD
ENDBRANCH  20  23
BRANCH  21  25
ATOM     25  O   UNL     1      84.724  43.922  43.972  1.00  0.00    -0.508 OA
ATOM     26  H   UNL     1      85.047  43.006  44.012  1.00  0.00     0.293 HD
ENDBRANCH  21  25
ENDBRANCH   2  12
BRANCH   6  27
ATOM     27  C   UNL     1      84.814  53.612  44.126  1.00  0.00     0.067 C 
BRANCH  27  28
ATOM     28  C   UNL     1      85.678  54.429  45.055  1.00  0.00    -0.023 C 
ATOM     29  C   UNL     1      85.403  54.840  46.310  1.00  0.00    -0.080 C 
ATOM     30  C   UNL     1      84.125  54.568  47.056  1.00  0.00     0.039 C 
ATOM     31  C   UNL     1      86.405  55.657  47.083  1.00  0.00     0.039 C 
ENDBRANCH  27  28
ENDBRANCH   6  27
BRANCH   5  32
ATOM     32  O   UNL     1      85.666  54.509  41.598  1.00  0.00    -0.504 OA
ATOM     33  H   UNL     1      85.310  54.412  40.692  1.00  0.00     0.293 HD
ENDBRANCH   5  32
BRANCH   4  34
ATOM     34  O   UNL     1      87.124  53.082  39.885  1.00  0.00    -0.504 OA
ATOM     35  H   UNL     1      87.811  53.749  40.058  1.00  0.00     0.293 HD
ENDBRANCH   4  34
TORSDOF 9
ENDMDL
MODEL 5
REMARK VINA RESULT:    -9.245      1.795      3.137
REMARK INTER + INTRA:         -14.092
REMARK INTER:                 -12.774
REMARK INTRA:                  -1.318
REMARK UNBOUND:                -1.064
REMARK SMILES CC(C)=CCc1c([C@@H]2CC(=O)c3c(O)cc(O)cc3O2)cc(O)c(O)c1CC=C(C)C
REMARK SMILES IDX 6 1 7 2 21 3 22 4 24 5 26 6 5 7 4 8 2 9 1 10 3 11 8 12 9 13
REMARK SMILES IDX 20 14 10 15 19 16 11 17 12 18 18 19 13 20 16 21 15 22 14 23
REMARK SMILES IDX 17 25 27 27 28 28 29 29 30 30 31 31 25 32 23 34
REMARK H PARENT 14 24 17 26 25 33 23 35
ROOT
ATOM      1  C   UNL     1      85.255  52.488  44.151  1.00  0.00    -0.030 A 
ATOM      2  C   UNL     1      84.815  51.768  42.995  1.00  0.00     0.001 A 
ATOM      3  C   UNL     1      84.817  52.415  41.736  1.00  0.00     0.058 A 
ATOM      4  C   UNL     1      85.234  53.729  41.616  1.00  0.00     0.158 A 
ATOM      5  C   UNL     1      85.644  54.439  42.735  1.00  0.00     0.161 A 
ATOM      6  C   UNL     1      85.661  53.856  44.009  1.00  0.00     0.005 A 
ENDROOT
BRANCH   1   7
ATOM      7  C   UNL     1      85.275  51.848  45.538  1.00  0.00     0.063 C 
BRANCH   7   8
ATOM      8  C   UNL     1      86.602  51.222  45.878  1.00  0.00    -0.024 C 
ATOM      9  C   UNL     1      87.076  50.905  47.100  1.00  0.00    -0.080 C 
ATOM     10  C   UNL     1      88.448  50.301  47.255  1.00  0.00     0.039 C 
ATOM     11  C   UNL     1      86.337  51.093  48.395  1.00  0.00     0.039 C 
ENDBRANCH   7   8
ENDBRANCH   1   7
BRANCH   2  12
ATOM     12  C   UNL     1      84.270  50.334  42.982  1.00  0.00     0.211 C 
ATOM     13  C   UNL     1      82.833  50.291  43.485  1.00  0.00     0.131 C 
ATOM     14  O   UNL     1      85.130  49.431  43.681  1.00  0.00    -0.484 OA
ATOM     15  C   UNL     1      82.333  48.881  43.384  1.00  0.00     0.174 C 
ATOM     16  C   UNL     1      84.660  48.147  43.740  1.00  0.00     0.138 A 
ATOM     17  O   UNL     1      81.150  48.602  43.196  1.00  0.00    -0.294 OA
ATOM     18  C   UNL     1      83.317  47.803  43.583  1.00  0.00     0.102 A 
ATOM     19  C   UNL     1      85.604  47.154  44.002  1.00  0.00     0.093 A 
ATOM     20  C   UNL     1      82.926  46.460  43.656  1.00  0.00     0.133 A 
ATOM     21  C   UNL     1      85.202  45.824  44.075  1.00  0.00     0.123 A 
ATOM     22  C   UNL     1      83.869  45.465  43.898  1.00  0.00     0.093 A 
BRANCH  20  23
ATOM     23  O   UNL     1      81.628  46.052  43.507  1.00  0.00    -0.507 OA
ATOM     24  H   UNL     1      81.631  45.090  43.296  1.00  0.00     0.293 HD
ENDBRANCH  20  23
BRANCH  21  25
ATOM     25  O   UNL     1      86.161  44.886  44.325  1.00  0.00    -0.508 OA
ATOM     26  H   UNL     1      85.882  44.039  43.937  1.00  0.00     0.293 HD
ENDBRANCH  21  25
ENDBRANCH   2  12
BRANCH   6  27
ATOM     27  C   UNL     1      86.138  54.710  45.175  1.00  0.00     0.067 C 
BRANCH  27  28
ATOM     28  C   UNL     1      85.003  55.170  46.057  1.00  0.00    -0.023 C 
ATOM     29  C   UNL     1      84.875  55.041  47.393  1.00  0.00    -0.080 C 
ATOM     30  C   UNL     1      85.868  54.373  48.303  1.00  0.00     0.039 C 
ATOM     31  C   UNL     1      83.653  55.571  48.098  1.00  0.00     0.039 C 
ENDBRANCH  27  28
ENDBRANCH   6  27
BRANCH   5  32
ATOM     32  O   UNL     1      86.027  55.745  42.559  1.00  0.00    -0.504 OA
ATOM     33  H   UNL     1      86.855  55.692  42.041  1.00  0.00     0.293 HD
ENDBRANCH   5  32
BRANCH   4  34
ATOM     34  O   UNL     1      85.247  54.377  40.411  1.00  0.00    -0.504 OA
ATOM     35  H   UNL     1      85.902  55.094  40.454  1.00  0.00     0.293 HD
ENDBRANCH   4  34
TORSDOF 9
ENDMDL
MODEL 6
REMARK VINA RESULT:    -9.240      3.760      8.057
REMARK INTER + INTRA:         -14.085
REMARK INTER:                 -12.723
REMARK INTRA:                  -1.362
REMARK UNBOUND:                -1.064
REMARK SMILES CC(C)=CCc1c([C@@H]2CC(=O)c3c(O)cc(O)cc3O2)cc(O)c(O)c1CC=C(C)C
REMARK SMILES IDX 6 1 7 2 21 3 22 4 24 5 26 6 5 7 4 8 2 9 1 10 3 11 8 12 9 13
REMARK SMILES IDX 20 14 10 15 19 16 11 17 12 18 18 19 13 20 16 21 15 22 14 23
REMARK SMILES IDX 17 25 27 27 28 28 29 29 30 30 31 31 25 32 23 34
REMARK H PARENT 14 24 17 26 25 33 23 35
ROOT
ATOM      1  C   UNL     1      86.995  50.586  43.218  1.00  0.00    -0.030 A 
ATOM      2  C   UNL     1      85.948  50.922  44.135  1.00  0.00     0.001 A 
ATOM      3  C   UNL     1      84.985  49.941  44.473  1.00  0.00     0.058 A 
ATOM      4  C   UNL     1      85.046  48.671  43.926  1.00  0.00     0.158 A 
ATOM      5  C   UNL     1      86.046  48.344  43.023  1.00  0.00     0.161 A 
ATOM      6  C   UNL     1      87.026  49.272  42.645  1.00  0.00     0.005 A 
ENDROOT
BRANCH   1   7
ATOM      7  C   UNL     1      88.063  51.599  42.810  1.00  0.00     0.063 C 
BRANCH   7   8
ATOM      8  C   UNL     1      87.911  52.076  41.390  1.00  0.00    -0.024 C 
ATOM      9  C   UNL     1      88.883  52.473  40.544  1.00  0.00    -0.080 C 
ATOM     10  C   UNL     1      88.542  52.945  39.154  1.00  0.00     0.039 C 
ATOM     11  C   UNL     1      90.354  52.489  40.856  1.00  0.00     0.039 C 
ENDBRANCH   7   8
ENDBRANCH   1   7
BRANCH   2  12
ATOM     12  C   UNL     1      85.717  52.299  44.771  1.00  0.00     0.211 C 
ATOM     13  C   UNL     1      84.592  52.245  45.797  1.00  0.00     0.131 C 
ATOM     14  O   UNL     1      85.519  53.315  43.785  1.00  0.00    -0.484 OA
ATOM     15  C   UNL     1      84.460  53.596  46.434  1.00  0.00     0.174 C 
ATOM     16  C   UNL     1      85.259  54.553  44.306  1.00  0.00     0.138 A 
ATOM     17  O   UNL     1      84.067  53.757  47.587  1.00  0.00    -0.294 OA
ATOM     18  C   UNL     1      84.763  54.766  45.593  1.00  0.00     0.102 A 
ATOM     19  C   UNL     1      85.488  55.640  43.462  1.00  0.00     0.093 A 
ATOM     20  C   UNL     1      84.529  56.072  46.044  1.00  0.00     0.133 A 
ATOM     21  C   UNL     1      85.248  56.931  43.921  1.00  0.00     0.123 A 
ATOM     22  C   UNL     1      84.775  57.159  45.210  1.00  0.00     0.093 A 
BRANCH  20  23
ATOM     23  O   UNL     1      84.049  56.354  47.295  1.00  0.00    -0.507 OA
ATOM     24  H   UNL     1      83.834  57.314  47.331  1.00  0.00     0.293 HD
ENDBRANCH  20  23
BRANCH  21  25
ATOM     25  O   UNL     1      85.493  57.964  43.064  1.00  0.00    -0.508 OA
ATOM     26  H   UNL     1      86.204  58.516  43.431  1.00  0.00     0.293 HD
ENDBRANCH  21  25
ENDBRANCH   2  12
BRANCH   6  27
ATOM     27  C   UNL     1      88.092  48.818  41.657  1.00  0.00     0.067 C 
BRANCH  27  28
ATOM     28  C   UNL     1      89.048  47.817  42.258  1.00  0.00    -0.023 C 
ATOM     29  C   UNL     1      90.340  47.995  42.599  1.00  0.00    -0.080 C 
ATOM     30  C   UNL     1      91.120  49.270  42.428  1.00  0.00     0.039 C 
ATOM     31  C   UNL     1      91.138  46.862  43.191  1.00  0.00     0.039 C 
ENDBRANCH  27  28
ENDBRANCH   6  27
BRANCH   5  32
ATOM     32  O   UNL     1      86.045  47.077  42.498  1.00  0.00    -0.504 OA
ATOM     33  H   UNL     1      86.341  46.504  43.233  1.00  0.00     0.293 HD
ENDBRANCH   5  32
BRANCH   4  34
ATOM     34  O   UNL     1      84.129  47.705  44.238  1.00  0.00    -0.504 OA
ATOM     35  H   UNL     1      83.737  47.373  43.412  1.00  0.00     0.293 HD
ENDBRANCH   4  34
TORSDOF 9
ENDMDL
MODEL 7
REMARK VINA RESULT:    -9.136      3.786      8.033
REMARK INTER + INTRA:         -13.939
REMARK INTER:                 -12.646
REMARK INTRA:                  -1.293
REMARK UNBOUND:                -1.064
REMARK SMILES CC(C)=CCc1c([C@@H]2CC(=O)c3c(O)cc(O)cc3O2)cc(O)c(O)c1CC=C(C)C
REMARK SMILES IDX 6 1 7 2 21 3 22 4 24 5 26 6 5 7 4 8 2 9 1 10 3 11 8 12 9 13
REMARK SMILES IDX 20 14 10 15 19 16 11 17 12 18 18 19 13 20 16 21 15 22 14 23
REMARK SMILES IDX 17 25 27 27 28 28 29 29 30 30 31 31 25 32 23 34
REMARK H PARENT 14 24 17 26 25 33 23 35
ROOT
ATOM      1  C   UNL     1      86.640  48.823  43.613  1.00  0.00    -0.030 A 
ATOM      2  C   UNL     1      87.399  50.007  43.880  1.00  0.00     0.001 A 
ATOM      3  C   UNL     1      88.576  50.256  43.134  1.00  0.00     0.058 A 
ATOM      4  C   UNL     1      88.998  49.369  42.159  1.00  0.00     0.158 A 
ATOM      5  C   UNL     1      88.278  48.210  41.907  1.00  0.00     0.161 A 
ATOM      6  C   UNL     1      87.106  47.905  42.615  1.00  0.00     0.005 A 
ENDROOT
BRANCH   1   7
ATOM      7  C   UNL     1      85.363  48.496  44.384  1.00  0.00     0.063 C 
BRANCH   7   8
ATOM      8  C   UNL     1      84.140  49.155  43.803  1.00  0.00    -0.024 C 
ATOM      9  C   UNL     1      83.014  48.561  43.360  1.00  0.00    -0.080 C 
ATOM     10  C   UNL     1      81.890  49.383  42.783  1.00  0.00     0.039 C 
ATOM     11  C   UNL     1      82.740  47.083  43.392  1.00  0.00     0.039 C 
ENDBRANCH   7   8
ENDBRANCH   1   7
BRANCH   2  12
ATOM     12  C   UNL     1      87.093  51.046  44.966  1.00  0.00     0.211 C 
ATOM     13  C   UNL     1      86.740  50.371  46.285  1.00  0.00     0.131 C 
ATOM     14  O   UNL     1      86.100  51.983  44.541  1.00  0.00    -0.484 OA
ATOM     15  C   UNL     1      86.520  51.432  47.321  1.00  0.00     0.174 C 
ATOM     16  C   UNL     1      85.756  52.902  45.495  1.00  0.00     0.138 A 
ATOM     17  O   UNL     1      86.745  51.256  48.517  1.00  0.00    -0.294 OA
ATOM     18  C   UNL     1      85.950  52.710  46.863  1.00  0.00     0.102 A 
ATOM     19  C   UNL     1      85.152  54.073  45.037  1.00  0.00     0.093 A 
ATOM     20  C   UNL     1      85.569  53.708  47.769  1.00  0.00     0.133 A 
ATOM     21  C   UNL     1      84.776  55.055  45.948  1.00  0.00     0.123 A 
ATOM     22  C   UNL     1      84.984  54.886  47.314  1.00  0.00     0.093 A 
BRANCH  20  23
ATOM     23  O   UNL     1      85.735  53.589  49.123  1.00  0.00    -0.507 OA
ATOM     24  H   UNL     1      85.431  54.425  49.544  1.00  0.00     0.293 HD
ENDBRANCH  20  23
BRANCH  21  25
ATOM     25  O   UNL     1      84.196  56.187  45.455  1.00  0.00    -0.508 OA
ATOM     26  H   UNL     1      84.845  56.661  44.908  1.00  0.00     0.293 HD
ENDBRANCH  21  25
ENDBRANCH   2  12
BRANCH   6  27
ATOM     27  C   UNL     1      86.377  46.617  42.260  1.00  0.00     0.067 C 
BRANCH  27  28
ATOM     28  C   UNL     1      87.087  45.390  42.778  1.00  0.00    -0.023 C 
ATOM     29  C   UNL     1      86.598  44.410  43.565  1.00  0.00    -0.080 C 
ATOM     30  C   UNL     1      85.200  44.349  44.116  1.00  0.00     0.039 C 
ATOM     31  C   UNL     1      87.474  43.256  43.980  1.00  0.00     0.039 C 
ENDBRANCH  27  28
ENDBRANCH   6  27
BRANCH   5  32
ATOM     32  O   UNL     1      88.753  47.357  40.944  1.00  0.00    -0.504 OA
ATOM     33  H   UNL     1      89.232  46.665  41.442  1.00  0.00     0.293 HD
ENDBRANCH   5  32
BRANCH   4  34
ATOM     34  O   UNL     1      90.130  49.586  41.423  1.00  0.00    -0.504 OA
ATOM     35  H   UNL     1      90.881  49.684  42.034  1.00  0.00     0.293 HD
ENDBRANCH   4  34
TORSDOF 9
ENDMDL
MODEL 8
REMARK VINA RESULT:    -9.131      2.516      7.748
REMARK INTER + INTRA:         -13.931
REMARK INTER:                 -12.738
REMARK INTRA:                  -1.193
REMARK UNBOUND:                -1.064
REMARK SMILES CC(C)=CCc1c([C@@H]2CC(=O)c3c(O)cc(O)cc3O2)cc(O)c(O)c1CC=C(C)C
REMARK SMILES IDX 6 1 7 2 21 3 22 4 24 5 26 6 5 7 4 8 2 9 1 10 3 11 8 12 9 13
REMARK SMILES IDX 20 14 10 15 19 16 11 17 12 18 18 19 13 20 16 21 15 22 14 23
REMARK SMILES IDX 17 25 27 27 28 28 29 29 30 30 31 31 25 32 23 34
REMARK H PARENT 14 24 17 26 25 33 23 35
ROOT
ATOM      1  C   UNL     1      84.407  48.408  43.636  1.00  0.00    -0.030 A 
ATOM      2  C   UNL     1      83.580  49.562  43.451  1.00  0.00     0.001 A 
ATOM      3  C   UNL     1      82.173  49.405  43.421  1.00  0.00     0.058 A 
ATOM      4  C   UNL     1      81.597  48.155  43.565  1.00  0.00     0.158 A 
ATOM      5  C   UNL     1      82.393  47.030  43.727  1.00  0.00     0.161 A 
ATOM      6  C   UNL     1      83.792  47.120  43.761  1.00  0.00     0.005 A 
ENDROOT
BRANCH   1   7
ATOM      7  C   UNL     1      85.931  48.510  43.676  1.00  0.00     0.063 C 
BRANCH   7   8
ATOM      8  C   UNL     1      86.455  48.983  45.006  1.00  0.00    -0.024 C 
ATOM      9  C   UNL     1      87.274  50.026  45.247  1.00  0.00    -0.080 C 
ATOM     10  C   UNL     1      87.719  50.342  46.651  1.00  0.00     0.039 C 
ATOM     11  C   UNL     1      87.814  50.967  44.205  1.00  0.00     0.039 C 
ENDBRANCH   7   8
ENDBRANCH   1   7
BRANCH   2  12
ATOM     12  C   UNL     1      84.073  50.995  43.217  1.00  0.00     0.211 C 
ATOM     13  C   UNL     1      84.101  51.783  44.521  1.00  0.00     0.131 C 
ATOM     14  O   UNL     1      83.331  51.653  42.188  1.00  0.00    -0.484 OA
ATOM     15  C   UNL     1      84.656  53.148  44.243  1.00  0.00     0.174 C 
ATOM     16  C   UNL     1      83.702  52.953  41.977  1.00  0.00     0.138 A 
ATOM     17  O   UNL     1      85.282  53.799  45.077  1.00  0.00    -0.294 OA
ATOM     18  C   UNL     1      84.367  53.734  42.923  1.00  0.00     0.102 A 
ATOM     19  C   UNL     1      83.352  53.504  40.745  1.00  0.00     0.093 A 
ATOM     20  C   UNL     1      84.711  55.057  42.619  1.00  0.00     0.133 A 
ATOM     21  C   UNL     1      83.697  54.821  40.456  1.00  0.00     0.123 A 
ATOM     22  C   UNL     1      84.381  55.604  41.382  1.00  0.00     0.093 A 
BRANCH  20  23
ATOM     23  O   UNL     1      85.368  55.878  43.497  1.00  0.00    -0.507 OA
ATOM     24  H   UNL     1      84.870  55.880  44.346  1.00  0.00     0.293 HD
ENDBRANCH  20  23
BRANCH  21  25
ATOM     25  O   UNL     1      83.342  55.316  39.235  1.00  0.00    -0.508 OA
ATOM     26  H   UNL     1      82.460  55.719  39.303  1.00  0.00     0.293 HD
ENDBRANCH  21  25
ENDBRANCH   2  12
BRANCH   6  27
ATOM     27  C   UNL     1      84.581  45.833  43.954  1.00  0.00     0.067 C 
BRANCH  27  28
ATOM     28  C   UNL     1      85.784  45.751  43.046  1.00  0.00    -0.023 C 
ATOM     29  C   UNL     1      86.750  44.811  43.020  1.00  0.00    -0.080 C 
ATOM     30  C   UNL     1      86.834  43.621  43.935  1.00  0.00     0.039 C 
ATOM     31  C   UNL     1      87.882  44.906  42.029  1.00  0.00     0.039 C 
ENDBRANCH  27  28
ENDBRANCH   6  27
BRANCH   5  32
ATOM     32  O   UNL     1      81.768  45.815  43.844  1.00  0.00    -0.504 OA
ATOM     33  H   UNL     1      82.319  45.314  44.479  1.00  0.00     0.293 HD
ENDBRANCH   5  32
BRANCH   4  34
ATOM     34  O   UNL     1      80.240  47.976  43.542  1.00  0.00    -0.504 OA
ATOM     35  H   UNL     1      79.822  48.739  43.977  1.00  0.00     0.293 HD
ENDBRANCH   4  34
TORSDOF 9
ENDMDL
MODEL 9
REMARK VINA RESULT:    -9.093      2.546      7.595
REMARK INTER + INTRA:         -13.878
REMARK INTER:                 -12.814
REMARK INTRA:                  -1.064
REMARK UNBOUND:                -1.064
REMARK SMILES CC(C)=CCc1c([C@@H]2CC(=O)c3c(O)cc(O)cc3O2)cc(O)c(O)c1CC=C(C)C
REMARK SMILES IDX 6 1 7 2 21 3 22 4 24 5 26 6 5 7 4 8 2 9 1 10 3 11 8 12 9 13
REMARK SMILES IDX 20 14 10 15 19 16 11 17 12 18 18 19 13 20 16 21 15 22 14 23
REMARK SMILES IDX 17 25 27 27 28 28 29 29 30 30 31 31 25 32 23 34
REMARK H PARENT 14 24 17 26 25 33 23 35
ROOT
ATOM      1  C   UNL     1      84.221  49.061  43.660  1.00  0.00    -0.030 A 
ATOM      2  C   UNL     1      83.433  50.253  43.566  1.00  0.00     0.001 A 
ATOM      3  C   UNL     1      82.038  50.145  43.357  1.00  0.00     0.058 A 
ATOM      4  C   UNL     1      81.433  48.905  43.240  1.00  0.00     0.158 A 
ATOM      5  C   UNL     1      82.192  47.746  43.312  1.00  0.00     0.161 A 
ATOM      6  C   UNL     1      83.579  47.788  43.514  1.00  0.00     0.005 A 
ENDROOT
BRANCH   1   7
ATOM      7  C   UNL     1      85.731  49.110  43.883  1.00  0.00     0.063 C 
BRANCH   7   8
ATOM      8  C   UNL     1      86.107  49.273  45.332  1.00  0.00    -0.024 C 
ATOM      9  C   UNL     1      86.997  50.137  45.861  1.00  0.00    -0.080 C 
ATOM     10  C   UNL     1      87.266  50.145  47.344  1.00  0.00     0.039 C 
ATOM     11  C   UNL     1      87.786  51.156  45.087  1.00  0.00     0.039 C 
ENDBRANCH   7   8
ENDBRANCH   1   7
BRANCH   2  12
ATOM     12  C   UNL     1      83.968  51.690  43.614  1.00  0.00     0.211 C 
ATOM     13  C   UNL     1      85.111  51.882  42.625  1.00  0.00     0.131 C 
ATOM     14  O   UNL     1      84.313  52.086  44.943  1.00  0.00    -0.484 OA
ATOM     15  C   UNL     1      85.543  53.317  42.666  1.00  0.00     0.174 C 
ATOM     16  C   UNL     1      84.843  53.345  45.031  1.00  0.00     0.138 A 
ATOM     17  O   UNL     1      86.020  53.901  41.695  1.00  0.00    -0.294 OA
ATOM     18  C   UNL     1      85.437  54.013  43.960  1.00  0.00     0.102 A 
ATOM     19  C   UNL     1      84.793  53.951  46.285  1.00  0.00     0.093 A 
ATOM     20  C   UNL     1      85.951  55.304  44.140  1.00  0.00     0.133 A 
ATOM     21  C   UNL     1      85.310  55.233  46.452  1.00  0.00     0.123 A 
ATOM     22  C   UNL     1      85.885  55.920  45.387  1.00  0.00     0.093 A 
BRANCH  20  23
ATOM     23  O   UNL     1      86.542  56.019  43.133  1.00  0.00    -0.507 OA
ATOM     24  H   UNL     1      86.464  56.976  43.350  1.00  0.00     0.293 HD
ENDBRANCH  20  23
BRANCH  21  25
ATOM     25  O   UNL     1      85.232  55.790  47.695  1.00  0.00    -0.508 OA
ATOM     26  H   UNL     1      85.317  56.755  47.613  1.00  0.00     0.293 HD
ENDBRANCH  21  25
ENDBRANCH   2  12
BRANCH   6  27
ATOM     27  C   UNL     1      84.325  46.464  43.591  1.00  0.00     0.067 C 
BRANCH  27  28
ATOM     28  C   UNL     1      85.611  46.479  42.802  1.00  0.00    -0.023 C 
ATOM     29  C   UNL     1      86.651  45.623  42.879  1.00  0.00    -0.080 C 
ATOM     30  C   UNL     1      86.746  44.448  43.813  1.00  0.00     0.039 C 
ATOM     31  C   UNL     1      87.860  45.808  41.998  1.00  0.00     0.039 C 
ENDBRANCH  27  28
ENDBRANCH   6  27
BRANCH   5  32
ATOM     32  O   UNL     1      81.543  46.546  43.170  1.00  0.00    -0.504 OA
ATOM     33  H   UNL     1      82.134  45.893  43.595  1.00  0.00     0.293 HD
ENDBRANCH   5  32
BRANCH   4  34
ATOM     34  O   UNL     1      80.086  48.772  43.040  1.00  0.00    -0.504 OA
ATOM     35  H   UNL     1      79.892  48.971  42.108  1.00  0.00     0.293 HD
ENDBRANCH   4  34
TORSDOF 9
ENDMDL
