MODEL 1
REMARK VINA RESULT:    -9.717      0.000      0.000
REMARK INTER + INTRA:         -10.934
REMARK INTER:                 -10.568
REMARK INTRA:                  -0.366
REMARK UNBOUND:                -0.365
REMARK SMILES CC1(C)C=Cc2cc([C@@H]3CC(=O)c4ccc(O)cc4O3)ccc2O1
REMARK SMILES IDX 16 1 15 2 14 3 13 4 19 5 18 6 20 7 9 8 10 9 11 10 12 11
REMARK SMILES IDX 17 12 8 14 21 15 7 16 22 17 6 18 23 19 5 20 24 21 4 22 2 23
REMARK SMILES IDX 1 24 3 25
REMARK H PARENT 17 13
ROOT
ATOM      1  C   UNL     1      85.080  57.773  45.346  1.00  0.00     0.119 A 
ATOM      2  C   UNL     1      84.107  57.682  46.339  1.00  0.00     0.047 A 
ATOM      3  C   UNL     1      83.814  56.437  46.900  1.00  0.00     0.019 A 
ATOM      4  C   UNL     1      84.505  55.302  46.461  1.00  0.00     0.060 A 
ATOM      5  C   UNL     1      85.493  55.406  45.482  1.00  0.00     0.134 A 
ATOM      6  C   UNL     1      85.771  56.646  44.909  1.00  0.00     0.093 A 
ATOM      7  O   UNL     1      86.209  54.337  45.014  1.00  0.00    -0.484 OA
ATOM      8  C   UNL     1      86.269  53.250  45.954  1.00  0.00     0.211 C 
ATOM      9  C   UNL     1      84.871  52.801  46.360  1.00  0.00     0.131 C 
ATOM     10  C   UNL     1      84.174  53.967  46.998  1.00  0.00     0.170 C 
ATOM     11  O   UNL     1      83.334  53.833  47.882  1.00  0.00    -0.294 OA
ENDROOT
BRANCH   1  12
ATOM     12  O   UNL     1      85.390  58.968  44.767  1.00  0.00    -0.508 OA
ATOM     13  H   UNL     1      86.357  59.065  44.736  1.00  0.00     0.293 HD
ENDBRANCH   1  12
BRANCH   8  14
ATOM     14  C   UNL     1      87.034  52.099  45.325  1.00  0.00    -0.006 A 
ATOM     15  C   UNL     1      87.391  50.965  46.071  1.00  0.00     0.011 A 
ATOM     16  C   UNL     1      87.432  52.173  43.980  1.00  0.00     0.019 A 
ATOM     17  C   UNL     1      88.117  49.929  45.481  1.00  0.00     0.047 A 
ATOM     18  C   UNL     1      88.162  51.133  43.386  1.00  0.00     0.017 A 
ATOM     19  C   UNL     1      88.501  50.012  44.143  1.00  0.00     0.127 A 
ATOM     20  C   UNL     1      88.569  51.216  41.994  1.00  0.00     0.012 C 
ATOM     21  O   UNL     1      89.211  48.950  43.659  1.00  0.00    -0.483 OA
ATOM     22  C   UNL     1      89.252  50.189  41.482  1.00  0.00     0.021 C 
ATOM     23  C   UNL     1      89.618  48.953  42.275  1.00  0.00     0.122 C 
ATOM     24  C   UNL     1      88.966  47.725  41.630  1.00  0.00     0.061 C 
ATOM     25  C   UNL     1      91.143  48.788  42.276  1.00  0.00     0.061 C 
ENDBRANCH   8  14
TORSDOF 2
ENDMDL
MODEL 2
REMARK VINA RESULT:    -9.125      2.444      2.909
REMARK INTER + INTRA:         -10.289
REMARK INTER:                  -9.943
REMARK INTRA:                  -0.347
REMARK UNBOUND:                -0.365
REMARK SMILES CC1(C)C=Cc2cc([C@@H]3CC(=O)c4ccc(O)cc4O3)ccc2O1
REMARK SMILES IDX 16 1 15 2 14 3 13 4 19 5 18 6 20 7 9 8 10 9 11 10 12 11
REMARK SMILES IDX 17 12 8 14 21 15 7 16 22 17 6 18 23 19 5 20 24 21 4 22 2 23
REMARK SMILES IDX 1 24 3 25
REMARK H PARENT 17 13
ROOT
ATOM      1  C   UNL     1      85.570  57.726  44.447  1.00  0.00     0.119 A 
ATOM      2  C   UNL     1      84.976  58.173  45.626  1.00  0.00     0.047 A 
ATOM      3  C   UNL     1      84.545  57.242  46.572  1.00  0.00     0.019 A 
ATOM      4  C   UNL     1      84.722  55.875  46.328  1.00  0.00     0.060 A 
ATOM      5  C   UNL     1      85.337  55.438  45.155  1.00  0.00     0.134 A 
ATOM      6  C   UNL     1      85.749  56.367  44.202  1.00  0.00     0.093 A 
ATOM      7  O   UNL     1      85.545  54.117  44.858  1.00  0.00    -0.484 OA
ATOM      8  C   UNL     1      85.598  53.282  46.028  1.00  0.00     0.211 C 
ATOM      9  C   UNL     1      84.335  53.433  46.865  1.00  0.00     0.131 C 
ATOM     10  C   UNL     1      84.224  54.870  47.287  1.00  0.00     0.170 C 
ATOM     11  O   UNL     1      83.704  55.210  48.345  1.00  0.00    -0.294 OA
ENDROOT
BRANCH   1  12
ATOM     12  O   UNL     1      85.997  58.602  43.494  1.00  0.00    -0.508 OA
ATOM     13  H   UNL     1      85.727  59.502  43.746  1.00  0.00     0.293 HD
ENDBRANCH   1  12
BRANCH   8  14
ATOM     14  C   UNL     1      85.778  51.838  45.593  1.00  0.00    -0.006 A 
ATOM     15  C   UNL     1      86.976  51.148  45.829  1.00  0.00     0.011 A 
ATOM     16  C   UNL     1      84.744  51.179  44.907  1.00  0.00     0.019 A 
ATOM     17  C   UNL     1      87.131  49.829  45.398  1.00  0.00     0.047 A 
ATOM     18  C   UNL     1      84.898  49.854  44.473  1.00  0.00     0.017 A 
ATOM     19  C   UNL     1      86.095  49.184  44.724  1.00  0.00     0.127 A 
ATOM     20  C   UNL     1      83.825  49.178  43.765  1.00  0.00     0.012 C 
ATOM     21  O   UNL     1      86.344  47.897  44.340  1.00  0.00    -0.483 OA
ATOM     22  C   UNL     1      84.026  47.912  43.389  1.00  0.00     0.021 C 
ATOM     23  C   UNL     1      85.308  47.156  43.662  1.00  0.00     0.122 C 
ATOM     24  C   UNL     1      85.000  45.938  44.541  1.00  0.00     0.061 C 
ATOM     25  C   UNL     1      85.914  46.693  42.331  1.00  0.00     0.061 C 
ENDBRANCH   8  14
TORSDOF 2
ENDMDL
MODEL 3
REMARK VINA RESULT:    -9.062      2.624      8.780
REMARK INTER + INTRA:         -10.221
REMARK INTER:                  -9.874
REMARK INTRA:                  -0.347
REMARK UNBOUND:                -0.365
REMARK SMILES CC1(C)C=Cc2cc([C@@H]3CC(=O)c4ccc(O)cc4O3)ccc2O1
REMARK SMILES IDX 16 1 15 2 14 3 13 4 19 5 18 6 20 7 9 8 10 9 11 10 12 11
REMARK SMILES IDX 17 12 8 14 21 15 7 16 22 17 6 18 23 19 5 20 24 21 4 22 2 23
REMARK SMILES IDX 1 24 3 25
REMARK H PARENT 17 13
ROOT
ATOM      1  C   UNL     1      85.944  44.726  42.701  1.00  0.00     0.119 A 
ATOM      2  C   UNL     1      87.182  44.116  42.514  1.00  0.00     0.047 A 
ATOM      3  C   UNL     1      88.314  44.909  42.313  1.00  0.00     0.019 A 
ATOM      4  C   UNL     1      88.190  46.302  42.310  1.00  0.00     0.060 A 
ATOM      5  C   UNL     1      86.949  46.905  42.520  1.00  0.00     0.134 A 
ATOM      6  C   UNL     1      85.817  46.113  42.700  1.00  0.00     0.093 A 
ATOM      7  O   UNL     1      86.761  48.262  42.534  1.00  0.00    -0.484 OA
ATOM      8  C   UNL     1      87.956  48.989  42.867  1.00  0.00     0.211 C 
ATOM      9  C   UNL     1      89.095  48.633  41.920  1.00  0.00     0.131 C 
ATOM     10  C   UNL     1      89.361  47.160  42.044  1.00  0.00     0.170 C 
ATOM     11  O   UNL     1      90.476  46.674  41.884  1.00  0.00    -0.294 OA
ENDROOT
BRANCH   1  12
ATOM     12  O   UNL     1      84.814  43.988  42.891  1.00  0.00    -0.508 OA
ATOM     13  H   UNL     1      84.398  43.816  42.030  1.00  0.00     0.293 HD
ENDBRANCH   1  12
BRANCH   8  14
ATOM     14  C   UNL     1      87.659  50.476  42.805  1.00  0.00    -0.006 A 
ATOM     15  C   UNL     1      88.299  51.311  41.876  1.00  0.00     0.011 A 
ATOM     16  C   UNL     1      86.755  51.050  43.715  1.00  0.00     0.019 A 
ATOM     17  C   UNL     1      88.031  52.681  41.852  1.00  0.00     0.047 A 
ATOM     18  C   UNL     1      86.485  52.426  43.692  1.00  0.00     0.017 A 
ATOM     19  C   UNL     1      87.126  53.236  42.756  1.00  0.00     0.127 A 
ATOM     20  C   UNL     1      85.548  53.012  44.634  1.00  0.00     0.012 C 
ATOM     21  O   UNL     1      86.935  54.585  42.655  1.00  0.00    -0.483 OA
ATOM     22  C   UNL     1      85.323  54.326  44.555  1.00  0.00     0.021 C 
ATOM     23  C   UNL     1      85.992  55.226  43.539  1.00  0.00     0.122 C 
ATOM     24  C   UNL     1      84.923  55.862  42.644  1.00  0.00     0.061 C 
ATOM     25  C   UNL     1      86.771  56.324  44.274  1.00  0.00     0.061 C 
ENDBRANCH   8  14
TORSDOF 2
ENDMDL
MODEL 4
REMARK VINA RESULT:    -9.001      2.988      8.829
REMARK INTER + INTRA:         -10.155
REMARK INTER:                  -9.824
REMARK INTRA:                  -0.331
REMARK UNBOUND:                -0.365
REMARK SMILES CC1(C)C=Cc2cc([C@@H]3CC(=O)c4ccc(O)cc4O3)ccc2O1
REMARK SMILES IDX 16 1 15 2 14 3 13 4 19 5 18 6 20 7 9 8 10 9 11 10 12 11
REMARK SMILES IDX 17 12 8 14 21 15 7 16 22 17 6 18 23 19 5 20 24 21 4 22 2 23
REMARK SMILES IDX 1 24 3 25
REMARK H PARENT 17 13
ROOT
ATOM      1  C   UNL     1      85.603  44.558  43.715  1.00  0.00     0.119 A 
ATOM      2  C   UNL     1      86.568  44.407  42.721  1.00  0.00     0.047 A 
ATOM      3  C   UNL     1      87.189  45.540  42.190  1.00  0.00     0.019 A 
ATOM      4  C   UNL     1      86.837  46.808  42.667  1.00  0.00     0.060 A 
ATOM      5  C   UNL     1      85.885  46.948  43.678  1.00  0.00     0.134 A 
ATOM      6  C   UNL     1      85.253  45.818  44.193  1.00  0.00     0.093 A 
ATOM      7  O   UNL     1      85.502  48.158  44.192  1.00  0.00    -0.484 OA
ATOM      8  C   UNL     1      86.503  49.177  44.030  1.00  0.00     0.211 C 
ATOM      9  C   UNL     1      86.890  49.335  42.565  1.00  0.00     0.131 C 
ATOM     10  C   UNL     1      87.438  48.023  42.084  1.00  0.00     0.170 C 
ATOM     11  O   UNL     1      88.301  47.946  41.215  1.00  0.00    -0.294 OA
ENDROOT
BRANCH   1  12
ATOM     12  O   UNL     1      84.968  43.479  44.253  1.00  0.00    -0.508 OA
ATOM     13  H   UNL     1      85.455  42.672  44.014  1.00  0.00     0.293 HD
ENDBRANCH   1  12
BRANCH   8  14
ATOM     14  C   UNL     1      85.965  50.486  44.581  1.00  0.00    -0.006 A 
ATOM     15  C   UNL     1      85.206  51.357  43.785  1.00  0.00     0.011 A 
ATOM     16  C   UNL     1      86.255  50.862  45.904  1.00  0.00     0.019 A 
ATOM     17  C   UNL     1      84.742  52.567  44.303  1.00  0.00     0.047 A 
ATOM     18  C   UNL     1      85.790  52.078  46.425  1.00  0.00     0.017 A 
ATOM     19  C   UNL     1      85.032  52.926  45.619  1.00  0.00     0.127 A 
ATOM     20  C   UNL     1      86.093  52.461  47.793  1.00  0.00     0.012 C 
ATOM     21  O   UNL     1      84.537  54.131  46.031  1.00  0.00    -0.483 OA
ATOM     22  C   UNL     1      85.612  53.625  48.236  1.00  0.00     0.021 C 
ATOM     23  C   UNL     1      84.773  54.556  47.389  1.00  0.00     0.122 C 
ATOM     24  C   UNL     1      83.394  54.726  48.036  1.00  0.00     0.061 C 
ATOM     25  C   UNL     1      85.471  55.919  47.296  1.00  0.00     0.061 C 
ENDBRANCH   8  14
TORSDOF 2
ENDMDL
MODEL 5
REMARK VINA RESULT:    -8.882      1.450      3.156
REMARK INTER + INTRA:         -10.026
REMARK INTER:                  -9.658
REMARK INTRA:                  -0.368
REMARK UNBOUND:                -0.365
REMARK SMILES CC1(C)C=Cc2cc([C@@H]3CC(=O)c4ccc(O)cc4O3)ccc2O1
REMARK SMILES IDX 16 1 15 2 14 3 13 4 19 5 18 6 20 7 9 8 10 9 11 10 12 11
REMARK SMILES IDX 17 12 8 14 21 15 7 16 22 17 6 18 23 19 5 20 24 21 4 22 2 23
REMARK SMILES IDX 1 24 3 25
REMARK H PARENT 17 13
ROOT
ATOM      1  C   UNL     1      84.135  55.518  47.630  1.00  0.00     0.119 A 
ATOM      2  C   UNL     1      83.868  56.768  47.075  1.00  0.00     0.047 A 
ATOM      3  C   UNL     1      84.280  57.039  45.768  1.00  0.00     0.019 A 
ATOM      4  C   UNL     1      84.948  56.052  45.035  1.00  0.00     0.060 A 
ATOM      5  C   UNL     1      85.192  54.797  45.592  1.00  0.00     0.134 A 
ATOM      6  C   UNL     1      84.798  54.534  46.902  1.00  0.00     0.093 A 
ATOM      7  O   UNL     1      85.834  53.787  44.927  1.00  0.00    -0.484 OA
ATOM      8  C   UNL     1      85.740  53.910  43.497  1.00  0.00     0.211 C 
ATOM      9  C   UNL     1      86.270  55.259  43.029  1.00  0.00     0.131 C 
ATOM     10  C   UNL     1      85.442  56.334  43.673  1.00  0.00     0.170 C 
ATOM     11  O   UNL     1      85.224  57.414  43.133  1.00  0.00    -0.294 OA
ENDROOT
BRANCH   1  12
ATOM     12  O   UNL     1      83.757  55.216  48.905  1.00  0.00    -0.508 OA
ATOM     13  H   UNL     1      83.517  54.275  48.950  1.00  0.00     0.293 HD
ENDBRANCH   1  12
BRANCH   8  14
ATOM     14  C   UNL     1      86.524  52.780  42.854  1.00  0.00    -0.006 A 
ATOM     15  C   UNL     1      86.529  52.593  41.463  1.00  0.00     0.011 A 
ATOM     16  C   UNL     1      87.234  51.872  43.658  1.00  0.00     0.019 A 
ATOM     17  C   UNL     1      87.235  51.532  40.894  1.00  0.00     0.047 A 
ATOM     18  C   UNL     1      87.944  50.806  43.087  1.00  0.00     0.017 A 
ATOM     19  C   UNL     1      87.941  50.642  41.702  1.00  0.00     0.127 A 
ATOM     20  C   UNL     1      88.677  49.873  43.925  1.00  0.00     0.012 C 
ATOM     21  O   UNL     1      88.597  49.637  41.051  1.00  0.00    -0.483 OA
ATOM     22  C   UNL     1      89.343  48.885  43.322  1.00  0.00     0.021 C 
ATOM     23  C   UNL     1      89.371  48.694  41.821  1.00  0.00     0.122 C 
ATOM     24  C   UNL     1      90.816  48.811  41.322  1.00  0.00     0.061 C 
ATOM     25  C   UNL     1      88.818  47.304  41.479  1.00  0.00     0.061 C 
ENDBRANCH   8  14
TORSDOF 2
ENDMDL
MODEL 6
REMARK VINA RESULT:    -8.799      4.115      8.503
REMARK INTER + INTRA:          -9.935
REMARK INTER:                  -9.589
REMARK INTRA:                  -0.346
REMARK UNBOUND:                -0.365
REMARK SMILES CC1(C)C=Cc2cc([C@@H]3CC(=O)c4ccc(O)cc4O3)ccc2O1
REMARK SMILES IDX 16 1 15 2 14 3 13 4 19 5 18 6 20 7 9 8 10 9 11 10 12 11
REMARK SMILES IDX 17 12 8 14 21 15 7 16 22 17 6 18 23 19 5 20 24 21 4 22 2 23
REMARK SMILES IDX 1 24 3 25
REMARK H PARENT 17 13
ROOT
ATOM      1  C   UNL     1      85.689  45.260  43.930  1.00  0.00     0.119 A 
ATOM      2  C   UNL     1      84.494  44.701  43.481  1.00  0.00     0.047 A 
ATOM      3  C   UNL     1      83.383  45.524  43.285  1.00  0.00     0.019 A 
ATOM      4  C   UNL     1      83.487  46.896  43.536  1.00  0.00     0.060 A 
ATOM      5  C   UNL     1      84.693  47.451  43.965  1.00  0.00     0.134 A 
ATOM      6  C   UNL     1      85.796  46.626  44.179  1.00  0.00     0.093 A 
ATOM      7  O   UNL     1      84.863  48.785  44.222  1.00  0.00    -0.484 OA
ATOM      8  C   UNL     1      83.926  49.615  43.514  1.00  0.00     0.211 C 
ATOM      9  C   UNL     1      82.491  49.205  43.821  1.00  0.00     0.131 C 
ATOM     10  C   UNL     1      82.312  47.778  43.390  1.00  0.00     0.170 C 
ATOM     11  O   UNL     1      81.240  47.338  42.987  1.00  0.00    -0.294 OA
ENDROOT
BRANCH   1  12
ATOM     12  O   UNL     1      86.794  44.490  44.142  1.00  0.00    -0.508 OA
ATOM     13  H   UNL     1      86.532  43.681  44.612  1.00  0.00     0.293 HD
ENDBRANCH   1  12
BRANCH   8  14
ATOM     14  C   UNL     1      84.159  51.063  43.904  1.00  0.00    -0.006 A 
ATOM     15  C   UNL     1      84.313  52.066  42.934  1.00  0.00     0.011 A 
ATOM     16  C   UNL     1      84.263  51.416  45.260  1.00  0.00     0.019 A 
ATOM     17  C   UNL     1      84.553  53.388  43.314  1.00  0.00     0.047 A 
ATOM     18  C   UNL     1      84.504  52.744  45.643  1.00  0.00     0.017 A 
ATOM     19  C   UNL     1      84.646  53.726  44.663  1.00  0.00     0.127 A 
ATOM     20  C   UNL     1      84.608  53.102  47.047  1.00  0.00     0.012 C 
ATOM     21  O   UNL     1      84.886  55.043  44.932  1.00  0.00    -0.483 OA
ATOM     22  C   UNL     1      84.826  54.384  47.349  1.00  0.00     0.021 C 
ATOM     23  C   UNL     1      84.968  55.473  46.307  1.00  0.00     0.122 C 
ATOM     24  C   UNL     1      83.858  56.510  46.504  1.00  0.00     0.061 C 
ATOM     25  C   UNL     1      86.338  56.146  46.465  1.00  0.00     0.061 C 
ENDBRANCH   8  14
TORSDOF 2
ENDMDL
MODEL 7
REMARK VINA RESULT:    -8.400      3.499      4.863
REMARK INTER + INTRA:          -9.501
REMARK INTER:                  -9.149
REMARK INTRA:                  -0.353
REMARK UNBOUND:                -0.365
REMARK SMILES CC1(C)C=Cc2cc([C@@H]3CC(=O)c4ccc(O)cc4O3)ccc2O1
REMARK SMILES IDX 16 1 15 2 14 3 13 4 19 5 18 6 20 7 9 8 10 9 11 10 12 11
REMARK SMILES IDX 17 12 8 14 21 15 7 16 22 17 6 18 23 19 5 20 24 21 4 22 2 23
REMARK SMILES IDX 1 24 3 25
REMARK H PARENT 17 13
ROOT
ATOM      1  C   UNL     1      84.220  54.651  40.504  1.00  0.00     0.119 A 
ATOM      2  C   UNL     1      84.502  55.514  41.562  1.00  0.00     0.047 A 
ATOM      3  C   UNL     1      85.165  55.023  42.689  1.00  0.00     0.019 A 
ATOM      4  C   UNL     1      85.541  53.676  42.738  1.00  0.00     0.060 A 
ATOM      5  C   UNL     1      85.273  52.825  41.665  1.00  0.00     0.134 A 
ATOM      6  C   UNL     1      84.595  53.311  40.549  1.00  0.00     0.093 A 
ATOM      7  O   UNL     1      85.620  51.500  41.647  1.00  0.00    -0.484 OA
ATOM      8  C   UNL     1      86.722  51.198  42.520  1.00  0.00     0.211 C 
ATOM      9  C   UNL     1      86.425  51.638  43.948  1.00  0.00     0.131 C 
ATOM     10  C   UNL     1      86.193  53.121  43.940  1.00  0.00     0.170 C 
ATOM     11  O   UNL     1      86.474  53.840  44.894  1.00  0.00    -0.294 OA
ENDROOT
BRANCH   1  12
ATOM     12  O   UNL     1      83.567  55.088  39.390  1.00  0.00    -0.508 OA
ATOM     13  H   UNL     1      83.400  56.042  39.474  1.00  0.00     0.293 HD
ENDBRANCH   1  12
BRANCH   8  14
ATOM     14  C   UNL     1      86.994  49.705  42.470  1.00  0.00    -0.006 A 
ATOM     15  C   UNL     1      87.973  49.169  41.620  1.00  0.00     0.011 A 
ATOM     16  C   UNL     1      86.231  48.826  43.258  1.00  0.00     0.019 A 
ATOM     17  C   UNL     1      88.190  47.791  41.570  1.00  0.00     0.047 A 
ATOM     18  C   UNL     1      86.448  47.442  43.208  1.00  0.00     0.017 A 
ATOM     19  C   UNL     1      87.431  46.930  42.362  1.00  0.00     0.127 A 
ATOM     20  C   UNL     1      85.657  46.539  44.027  1.00  0.00     0.012 C 
ATOM     21  O   UNL     1      87.716  45.600  42.239  1.00  0.00    -0.483 OA
ATOM     22  C   UNL     1      85.918  45.232  43.944  1.00  0.00     0.021 C 
ATOM     23  C   UNL     1      86.990  44.651  43.048  1.00  0.00     0.122 C 
ATOM     24  C   UNL     1      88.032  43.928  43.907  1.00  0.00     0.061 C 
ATOM     25  C   UNL     1      86.346  43.659  42.071  1.00  0.00     0.061 C 
ENDBRANCH   8  14
TORSDOF 2
ENDMDL
MODEL 8
REMARK VINA RESULT:    -8.395      2.419      8.097
REMARK INTER + INTRA:          -9.496
REMARK INTER:                  -9.149
REMARK INTRA:                  -0.347
REMARK UNBOUND:                -0.365
REMARK SMILES CC1(C)C=Cc2cc([C@@H]3CC(=O)c4ccc(O)cc4O3)ccc2O1
REMARK SMILES IDX 16 1 15 2 14 3 13 4 19 5 18 6 20 7 9 8 10 9 11 10 12 11
REMARK SMILES IDX 17 12 8 14 21 15 7 16 22 17 6 18 23 19 5 20 24 21 4 22 2 23
REMARK SMILES IDX 1 24 3 25
REMARK H PARENT 17 13
ROOT
ATOM      1  C   UNL     1      89.004  47.494  41.842  1.00  0.00     0.119 A 
ATOM      2  C   UNL     1      88.191  46.392  42.104  1.00  0.00     0.047 A 
ATOM      3  C   UNL     1      86.945  46.587  42.705  1.00  0.00     0.019 A 
ATOM      4  C   UNL     1      86.529  47.883  43.029  1.00  0.00     0.060 A 
ATOM      5  C   UNL     1      87.340  48.982  42.743  1.00  0.00     0.134 A 
ATOM      6  C   UNL     1      88.591  48.785  42.161  1.00  0.00     0.093 A 
ATOM      7  O   UNL     1      86.989  50.274  43.028  1.00  0.00    -0.484 OA
ATOM      8  C   UNL     1      85.566  50.461  43.118  1.00  0.00     0.211 C 
ATOM      9  C   UNL     1      84.954  49.518  44.146  1.00  0.00     0.131 C 
ATOM     10  C   UNL     1      85.242  48.109  43.715  1.00  0.00     0.170 C 
ATOM     11  O   UNL     1      84.484  47.175  43.958  1.00  0.00    -0.294 OA
ENDROOT
BRANCH   1  12
ATOM     12  O   UNL     1      90.229  47.346  41.265  1.00  0.00    -0.508 OA
ATOM     13  H   UNL     1      90.916  47.556  41.920  1.00  0.00     0.293 HD
ENDBRANCH   1  12
BRANCH   8  14
ATOM     14  C   UNL     1      85.283  51.906  43.488  1.00  0.00    -0.006 A 
ATOM     15  C   UNL     1      84.353  52.675  42.771  1.00  0.00     0.011 A 
ATOM     16  C   UNL     1      85.985  52.511  44.544  1.00  0.00     0.019 A 
ATOM     17  C   UNL     1      84.126  54.010  43.111  1.00  0.00     0.047 A 
ATOM     18  C   UNL     1      85.758  53.851  44.886  1.00  0.00     0.017 A 
ATOM     19  C   UNL     1      84.825  54.596  44.166  1.00  0.00     0.127 A 
ATOM     20  C   UNL     1      86.487  54.469  45.980  1.00  0.00     0.012 C 
ATOM     21  O   UNL     1      84.535  55.906  44.418  1.00  0.00    -0.483 OA
ATOM     22  C   UNL     1      86.218  55.746  46.267  1.00  0.00     0.021 C 
ATOM     23  C   UNL     1      85.199  56.572  45.512  1.00  0.00     0.122 C 
ATOM     24  C   UNL     1      84.097  57.022  46.478  1.00  0.00     0.061 C 
ATOM     25  C   UNL     1      85.893  57.800  44.910  1.00  0.00     0.061 C 
ENDBRANCH   8  14
TORSDOF 2
ENDMDL
MODEL 9
REMARK VINA RESULT:    -8.310      2.810      4.693
REMARK INTER + INTRA:          -9.404
REMARK INTER:                  -9.039
REMARK INTRA:                  -0.365
REMARK UNBOUND:                -0.365
REMARK SMILES CC1(C)C=Cc2cc([C@@H]3CC(=O)c4ccc(O)cc4O3)ccc2O1
REMARK SMILES IDX 16 1 15 2 14 3 13 4 19 5 18 6 20 7 9 8 10 9 11 10 12 11
REMARK SMILES IDX 17 12 8 14 21 15 7 16 22 17 6 18 23 19 5 20 24 21 4 22 2 23
REMARK SMILES IDX 1 24 3 25
REMARK H PARENT 17 13
ROOT
ATOM      1  C   UNL     1      84.498  53.868  46.399  1.00  0.00     0.119 A 
ATOM      2  C   UNL     1      84.923  54.969  45.657  1.00  0.00     0.047 A 
ATOM      3  C   UNL     1      85.737  54.770  44.540  1.00  0.00     0.019 A 
ATOM      4  C   UNL     1      86.108  53.470  44.177  1.00  0.00     0.060 A 
ATOM      5  C   UNL     1      85.660  52.373  44.913  1.00  0.00     0.134 A 
ATOM      6  C   UNL     1      84.864  52.574  46.039  1.00  0.00     0.093 A 
ATOM      7  O   UNL     1      85.981  51.077  44.608  1.00  0.00    -0.484 OA
ATOM      8  C   UNL     1      86.324  50.896  43.223  1.00  0.00     0.211 C 
ATOM      9  C   UNL     1      87.463  51.823  42.817  1.00  0.00     0.131 C 
ATOM     10  C   UNL     1      87.012  53.239  43.034  1.00  0.00     0.170 C 
ATOM     11  O   UNL     1      87.406  54.172  42.341  1.00  0.00    -0.294 OA
ENDROOT
BRANCH   1  12
ATOM     12  O   UNL     1      83.710  54.020  47.500  1.00  0.00    -0.508 OA
ATOM     13  H   UNL     1      82.890  54.475  47.244  1.00  0.00     0.293 HD
ENDBRANCH   1  12
BRANCH   8  14
ATOM     14  C   UNL     1      86.714  49.446  42.999  1.00  0.00    -0.006 A 
ATOM     15  C   UNL     1      87.735  49.094  42.103  1.00  0.00     0.011 A 
ATOM     16  C   UNL     1      86.022  48.422  43.668  1.00  0.00     0.019 A 
ATOM     17  C   UNL     1      88.061  47.753  41.891  1.00  0.00     0.047 A 
ATOM     18  C   UNL     1      86.348  47.075  43.456  1.00  0.00     0.017 A 
ATOM     19  C   UNL     1      87.371  46.747  42.566  1.00  0.00     0.127 A 
ATOM     20  C   UNL     1      85.629  46.022  44.152  1.00  0.00     0.012 C 
ATOM     21  O   UNL     1      87.761  45.468  42.289  1.00  0.00    -0.483 OA
ATOM     22  C   UNL     1      85.994  44.758  43.918  1.00  0.00     0.021 C 
ATOM     23  C   UNL     1      87.111  44.375  42.971  1.00  0.00     0.122 C 
ATOM     24  C   UNL     1      88.205  43.638  43.751  1.00  0.00     0.061 C 
ATOM     25  C   UNL     1      86.550  43.459  41.876  1.00  0.00     0.061 C 
ENDBRANCH   8  14
TORSDOF 2
ENDMDL
