MODEL 1
REMARK VINA RESULT:    -9.380      0.000      0.000
REMARK INTER + INTRA:         -14.883
REMARK INTER:                 -13.662
REMARK INTRA:                  -1.222
REMARK UNBOUND:                -1.116
REMARK SMILES C=C(C)C(O)Cc1cc([C@@H]2CC(=O)c3c(O)cc(O)cc3O2)cc(CC=C(C)C)c1O
REMARK SMILES IDX 24 1 23 2 9 3 8 4 7 5 30 6 25 7 26 8 27 9 28 10 29 11 31 12
REMARK SMILES IDX 10 14 11 15 22 16 12 17 21 18 13 19 14 20 20 21 15 22 18 23
REMARK SMILES IDX 17 24 16 25 19 27 6 29 4 30 2 31 1 32 3 33 5 34
REMARK H PARENT 31 13 16 26 19 28 5 35
ROOT
ATOM      1  C   UNL     1      86.563  49.200  44.010  1.00  0.00    -0.002 A 
ATOM      2  C   UNL     1      86.092  50.389  44.588  1.00  0.00     0.015 A 
ATOM      3  C   UNL     1      86.771  51.603  44.416  1.00  0.00    -0.006 A 
ATOM      4  C   UNL     1      87.945  51.614  43.648  1.00  0.00     0.015 A 
ATOM      5  C   UNL     1      88.445  50.438  43.064  1.00  0.00    -0.003 A 
ATOM      6  C   UNL     1      87.751  49.236  43.269  1.00  0.00     0.122 A 
ENDROOT
BRANCH   1   7
ATOM      7  C   UNL     1      85.799  47.915  44.241  1.00  0.00     0.066 C 
BRANCH   7   8
ATOM      8  C   UNL     1      84.427  47.951  43.620  1.00  0.00    -0.023 C 
ATOM      9  C   UNL     1      83.600  46.921  43.355  1.00  0.00    -0.080 C 
ATOM     10  C   UNL     1      82.244  47.166  42.746  1.00  0.00     0.039 C 
ATOM     11  C   UNL     1      83.908  45.471  43.609  1.00  0.00     0.039 C 
ENDBRANCH   7   8
ENDBRANCH   1   7
BRANCH   6  12
ATOM     12  O   UNL     1      88.211  48.062  42.741  1.00  0.00    -0.507 OA
ATOM     13  H   UNL     1      88.974  47.770  43.265  1.00  0.00     0.293 HD
ENDBRANCH   6  12
BRANCH   3  14
ATOM     14  C   UNL     1      86.274  52.882  45.067  1.00  0.00     0.211 C 
ATOM     15  C   UNL     1      84.912  52.657  45.711  1.00  0.00     0.131 C 
ATOM     16  O   UNL     1      86.208  53.912  44.067  1.00  0.00    -0.484 OA
ATOM     17  C   UNL     1      84.479  53.948  46.342  1.00  0.00     0.174 C 
ATOM     18  C   UNL     1      85.725  55.099  44.552  1.00  0.00     0.138 A 
ATOM     19  O   UNL     1      83.763  53.998  47.340  1.00  0.00    -0.294 OA
ATOM     20  C   UNL     1      84.894  55.192  45.671  1.00  0.00     0.102 A 
ATOM     21  C   UNL     1      86.077  56.251  43.851  1.00  0.00     0.093 A 
ATOM     22  C   UNL     1      84.446  56.445  46.107  1.00  0.00     0.133 A 
ATOM     23  C   UNL     1      85.624  57.491  44.294  1.00  0.00     0.123 A 
ATOM     24  C   UNL     1      84.815  57.600  45.421  1.00  0.00     0.093 A 
BRANCH  22  25
ATOM     25  O   UNL     1      83.635  56.609  47.196  1.00  0.00    -0.507 OA
ATOM     26  H   UNL     1      83.596  57.569  47.409  1.00  0.00     0.293 HD
ENDBRANCH  22  25
BRANCH  23  27
ATOM     27  O   UNL     1      86.003  58.592  43.585  1.00  0.00    -0.508 OA
ATOM     28  H   UNL     1      85.223  58.959  43.133  1.00  0.00     0.293 HD
ENDBRANCH  23  27
ENDBRANCH   3  14
BRANCH   5  29
ATOM     29  C   UNL     1      89.674  50.526  42.180  1.00  0.00     0.075 C 
BRANCH  29  30
ATOM     30  C   UNL     1      89.310  50.671  40.690  1.00  0.00     0.144 C 
BRANCH  30  31
ATOM     31  C   UNL     1      89.393  52.118  40.230  1.00  0.00    -0.052 C 
ATOM     32  C   UNL     1      90.354  52.973  40.622  1.00  0.00     0.010 C 
ATOM     33  C   UNL     1      88.288  52.576  39.317  1.00  0.00     0.041 C 
ENDBRANCH  30  31
BRANCH  30  34
ATOM     34  O   UNL     1      87.980  50.181  40.485  1.00  0.00    -0.388 OA
ATOM     35  H   UNL     1      87.835  50.180  39.523  1.00  0.00     0.211 HD
ENDBRANCH  30  34
ENDBRANCH  29  30
ENDBRANCH   5  29
TORSDOF 10
ENDMDL
MODEL 2
REMARK VINA RESULT:    -9.300      1.794      5.126
REMARK INTER + INTRA:         -14.766
REMARK INTER:                 -13.445
REMARK INTRA:                  -1.321
REMARK UNBOUND:                -1.116
REMARK SMILES C=C(C)C(O)Cc1cc([C@@H]2CC(=O)c3c(O)cc(O)cc3O2)cc(CC=C(C)C)c1O
REMARK SMILES IDX 24 1 23 2 9 3 8 4 7 5 30 6 25 7 26 8 27 9 28 10 29 11 31 12
REMARK SMILES IDX 10 14 11 15 22 16 12 17 21 18 13 19 14 20 20 21 15 22 18 23
REMARK SMILES IDX 17 24 16 25 19 27 6 29 4 30 2 31 1 32 3 33 5 34
REMARK H PARENT 31 13 16 26 19 28 5 35
ROOT
ATOM      1  C   UNL     1      88.494  49.712  42.457  1.00  0.00    -0.002 A 
ATOM      2  C   UNL     1      88.207  50.689  43.422  1.00  0.00     0.015 A 
ATOM      3  C   UNL     1      87.071  50.596  44.239  1.00  0.00    -0.006 A 
ATOM      4  C   UNL     1      86.214  49.499  44.076  1.00  0.00     0.015 A 
ATOM      5  C   UNL     1      86.471  48.509  43.112  1.00  0.00    -0.003 A 
ATOM      6  C   UNL     1      87.607  48.640  42.299  1.00  0.00     0.122 A 
ENDROOT
BRANCH   1   7
ATOM      7  C   UNL     1      89.726  49.871  41.592  1.00  0.00     0.066 C 
BRANCH   7   8
ATOM      8  C   UNL     1      90.137  51.312  41.450  1.00  0.00    -0.023 C 
ATOM      9  C   UNL     1      89.726  52.214  40.537  1.00  0.00    -0.080 C 
ATOM     10  C   UNL     1      90.241  53.630  40.575  1.00  0.00     0.039 C 
ATOM     11  C   UNL     1      88.761  51.940  39.417  1.00  0.00     0.039 C 
ENDBRANCH   7   8
ENDBRANCH   1   7
BRANCH   6  12
ATOM     12  O   UNL     1      87.888  47.715  41.332  1.00  0.00    -0.507 OA
ATOM     13  H   UNL     1      88.852  47.651  41.243  1.00  0.00     0.293 HD
ENDBRANCH   6  12
BRANCH   3  14
ATOM     14  C   UNL     1      86.748  51.671  45.262  1.00  0.00     0.211 C 
ATOM     15  C   UNL     1      86.186  51.047  46.532  1.00  0.00     0.131 C 
ATOM     16  O   UNL     1      85.811  52.592  44.681  1.00  0.00    -0.484 OA
ATOM     17  C   UNL     1      85.896  52.152  47.504  1.00  0.00     0.174 C 
ATOM     18  C   UNL     1      85.422  53.579  45.549  1.00  0.00     0.138 A 
ATOM     19  O   UNL     1      85.955  52.006  48.723  1.00  0.00    -0.294 OA
ATOM     20  C   UNL     1      85.458  53.441  46.939  1.00  0.00     0.102 A 
ATOM     21  C   UNL     1      84.944  54.759  44.981  1.00  0.00     0.093 A 
ATOM     22  C   UNL     1      85.048  54.500  47.757  1.00  0.00     0.133 A 
ATOM     23  C   UNL     1      84.538  55.804  45.806  1.00  0.00     0.123 A 
ATOM     24  C   UNL     1      84.591  55.688  47.192  1.00  0.00     0.093 A 
BRANCH  22  25
ATOM     25  O   UNL     1      85.061  54.434  49.124  1.00  0.00    -0.507 OA
ATOM     26  H   UNL     1      84.150  54.221  49.430  1.00  0.00     0.293 HD
ENDBRANCH  22  25
BRANCH  23  27
ATOM     27  O   UNL     1      84.089  56.944  45.208  1.00  0.00    -0.508 OA
ATOM     28  H   UNL     1      83.881  57.600  45.896  1.00  0.00     0.293 HD
ENDBRANCH  23  27
ENDBRANCH   3  14
BRANCH   5  29
ATOM     29  C   UNL     1      85.551  47.306  43.035  1.00  0.00     0.075 C 
BRANCH  29  30
ATOM     30  C   UNL     1      86.099  46.103  43.829  1.00  0.00     0.144 C 
BRANCH  30  31
ATOM     31  C   UNL     1      86.243  44.871  42.951  1.00  0.00    -0.052 C 
ATOM     32  C   UNL     1      87.420  44.275  42.686  1.00  0.00     0.010 C 
ATOM     33  C   UNL     1      84.970  44.354  42.338  1.00  0.00     0.041 C 
ENDBRANCH  30  31
BRANCH  30  34
ATOM     34  O   UNL     1      85.210  45.816  44.913  1.00  0.00    -0.388 OA
ATOM     35  H   UNL     1      84.821  46.668  45.180  1.00  0.00     0.211 HD
ENDBRANCH  30  34
ENDBRANCH  29  30
ENDBRANCH   5  29
TORSDOF 10
ENDMDL
MODEL 3
REMARK VINA RESULT:    -9.266      3.032      5.171
REMARK INTER + INTRA:         -14.715
REMARK INTER:                 -13.273
REMARK INTRA:                  -1.443
REMARK UNBOUND:                -1.116
REMARK SMILES C=C(C)C(O)Cc1cc([C@@H]2CC(=O)c3c(O)cc(O)cc3O2)cc(CC=C(C)C)c1O
REMARK SMILES IDX 24 1 23 2 9 3 8 4 7 5 30 6 25 7 26 8 27 9 28 10 29 11 31 12
REMARK SMILES IDX 10 14 11 15 22 16 12 17 21 18 13 19 14 20 20 21 15 22 18 23
REMARK SMILES IDX 17 24 16 25 19 27 6 29 4 30 2 31 1 32 3 33 5 34
REMARK H PARENT 31 13 16 26 19 28 5 35
ROOT
ATOM      1  C   UNL     1      88.730  51.355  41.530  1.00  0.00    -0.002 A 
ATOM      2  C   UNL     1      88.491  51.419  42.912  1.00  0.00     0.015 A 
ATOM      3  C   UNL     1      87.386  52.109  43.430  1.00  0.00    -0.006 A 
ATOM      4  C   UNL     1      86.511  52.744  42.538  1.00  0.00     0.015 A 
ATOM      5  C   UNL     1      86.728  52.704  41.150  1.00  0.00    -0.003 A 
ATOM      6  C   UNL     1      87.852  52.020  40.664  1.00  0.00     0.122 A 
ENDROOT
BRANCH   1   7
ATOM      7  C   UNL     1      89.946  50.610  41.026  1.00  0.00     0.066 C 
BRANCH   7   8
ATOM      8  C   UNL     1      89.833  49.125  41.248  1.00  0.00    -0.023 C 
ATOM      9  C   UNL     1      90.467  48.363  42.161  1.00  0.00    -0.080 C 
ATOM     10  C   UNL     1      90.200  46.883  42.242  1.00  0.00     0.039 C 
ATOM     11  C   UNL     1      91.477  48.861  43.158  1.00  0.00     0.039 C 
ENDBRANCH   7   8
ENDBRANCH   1   7
BRANCH   6  12
ATOM     12  O   UNL     1      88.119  51.972  39.324  1.00  0.00    -0.507 OA
ATOM     13  H   UNL     1      87.313  51.691  38.863  1.00  0.00     0.293 HD
ENDBRANCH   6  12
BRANCH   3  14
ATOM     14  C   UNL     1      87.148  52.200  44.928  1.00  0.00     0.211 C 
ATOM     15  C   UNL     1      87.003  50.809  45.530  1.00  0.00     0.131 C 
ATOM     16  O   UNL     1      85.969  52.988  45.159  1.00  0.00    -0.484 OA
ATOM     17  C   UNL     1      86.779  50.963  47.005  1.00  0.00     0.174 C 
ATOM     18  C   UNL     1      85.645  53.091  46.486  1.00  0.00     0.138 A 
ATOM     19  O   UNL     1      87.143  50.128  47.829  1.00  0.00    -0.294 OA
ATOM     20  C   UNL     1      86.026  52.151  47.447  1.00  0.00     0.102 A 
ATOM     21  C   UNL     1      84.870  54.188  46.858  1.00  0.00     0.093 A 
ATOM     22  C   UNL     1      85.658  52.331  48.785  1.00  0.00     0.133 A 
ATOM     23  C   UNL     1      84.510  54.355  48.192  1.00  0.00     0.123 A 
ATOM     24  C   UNL     1      84.903  53.438  49.163  1.00  0.00     0.093 A 
BRANCH  22  25
ATOM     25  O   UNL     1      86.000  51.453  49.777  1.00  0.00    -0.507 OA
ATOM     26  H   UNL     1      86.427  51.960  50.504  1.00  0.00     0.293 HD
ENDBRANCH  22  25
BRANCH  23  27
ATOM     27  O   UNL     1      83.761  55.449  48.513  1.00  0.00    -0.508 OA
ATOM     28  H   UNL     1      82.895  55.376  48.077  1.00  0.00     0.293 HD
ENDBRANCH  23  27
ENDBRANCH   3  14
BRANCH   5  29
ATOM     29  C   UNL     1      85.706  53.343  40.231  1.00  0.00     0.075 C 
BRANCH  29  30
ATOM     30  C   UNL     1      84.767  54.305  40.985  1.00  0.00     0.144 C 
BRANCH  30  31
ATOM     31  C   UNL     1      83.327  53.819  40.959  1.00  0.00    -0.052 C 
ATOM     32  C   UNL     1      82.291  54.569  40.540  1.00  0.00     0.010 C 
ATOM     33  C   UNL     1      83.099  52.426  41.480  1.00  0.00     0.041 C 
ENDBRANCH  30  31
BRANCH  30  34
ATOM     34  O   UNL     1      84.845  55.601  40.382  1.00  0.00    -0.388 OA
ATOM     35  H   UNL     1      84.189  55.607  39.663  1.00  0.00     0.211 HD
ENDBRANCH  30  34
ENDBRANCH  29  30
ENDBRANCH   5  29
TORSDOF 10
ENDMDL
MODEL 4
REMARK VINA RESULT:    -9.220      2.533      7.109
REMARK INTER + INTRA:         -14.648
REMARK INTER:                 -13.036
REMARK INTRA:                  -1.611
REMARK UNBOUND:                -1.116
REMARK SMILES C=C(C)C(O)Cc1cc([C@@H]2CC(=O)c3c(O)cc(O)cc3O2)cc(CC=C(C)C)c1O
REMARK SMILES IDX 24 1 23 2 9 3 8 4 7 5 30 6 25 7 26 8 27 9 28 10 29 11 31 12
REMARK SMILES IDX 10 14 11 15 22 16 12 17 21 18 13 19 14 20 20 21 15 22 18 23
REMARK SMILES IDX 17 24 16 25 19 27 6 29 4 30 2 31 1 32 3 33 5 34
REMARK H PARENT 31 13 16 26 19 28 5 35
ROOT
ATOM      1  C   UNL     1      86.542  53.213  44.364  1.00  0.00    -0.002 A 
ATOM      2  C   UNL     1      86.000  51.939  44.592  1.00  0.00     0.015 A 
ATOM      3  C   UNL     1      85.799  51.032  43.542  1.00  0.00    -0.006 A 
ATOM      4  C   UNL     1      86.153  51.421  42.242  1.00  0.00     0.015 A 
ATOM      5  C   UNL     1      86.691  52.693  41.981  1.00  0.00    -0.003 A 
ATOM      6  C   UNL     1      86.862  53.583  43.052  1.00  0.00     0.122 A 
ENDROOT
BRANCH   1   7
ATOM      7  C   UNL     1      86.722  54.157  45.533  1.00  0.00     0.066 C 
BRANCH   7   8
ATOM      8  C   UNL     1      85.408  54.536  46.163  1.00  0.00    -0.023 C 
ATOM      9  C   UNL     1      84.917  54.166  47.363  1.00  0.00    -0.080 C 
ATOM     10  C   UNL     1      83.579  54.674  47.831  1.00  0.00     0.039 C 
ATOM     11  C   UNL     1      85.599  53.241  48.334  1.00  0.00     0.039 C 
ENDBRANCH   7   8
ENDBRANCH   1   7
BRANCH   6  12
ATOM     12  O   UNL     1      87.360  54.840  42.846  1.00  0.00    -0.507 OA
ATOM     13  H   UNL     1      87.650  54.905  41.922  1.00  0.00     0.293 HD
ENDBRANCH   6  12
BRANCH   3  14
ATOM     14  C   UNL     1      85.185  49.665  43.789  1.00  0.00     0.211 C 
ATOM     15  C   UNL     1      85.974  48.587  43.060  1.00  0.00     0.131 C 
ATOM     16  O   UNL     1      83.817  49.690  43.350  1.00  0.00    -0.484 OA
ATOM     17  C   UNL     1      85.327  47.264  43.347  1.00  0.00     0.174 C 
ATOM     18  C   UNL     1      83.187  48.481  43.492  1.00  0.00     0.138 A 
ATOM     19  O   UNL     1      85.952  46.206  43.387  1.00  0.00    -0.294 OA
ATOM     20  C   UNL     1      83.864  47.259  43.522  1.00  0.00     0.102 A 
ATOM     21  C   UNL     1      81.797  48.507  43.581  1.00  0.00     0.093 A 
ATOM     22  C   UNL     1      83.146  46.067  43.675  1.00  0.00     0.133 A 
ATOM     23  C   UNL     1      81.095  47.314  43.732  1.00  0.00     0.123 A 
ATOM     24  C   UNL     1      81.758  46.092  43.786  1.00  0.00     0.093 A 
BRANCH  22  25
ATOM     25  O   UNL     1      83.745  44.837  43.715  1.00  0.00    -0.507 OA
ATOM     26  H   UNL     1      83.918  44.549  42.790  1.00  0.00     0.293 HD
ENDBRANCH  22  25
BRANCH  23  27
ATOM     27  O   UNL     1      79.736  47.387  43.826  1.00  0.00    -0.508 OA
ATOM     28  H   UNL     1      79.473  47.183  44.740  1.00  0.00     0.293 HD
ENDBRANCH  23  27
ENDBRANCH   3  14
BRANCH   5  29
ATOM     29  C   UNL     1      87.126  53.028  40.568  1.00  0.00     0.075 C 
BRANCH  29  30
ATOM     30  C   UNL     1      88.176  52.035  40.033  1.00  0.00     0.144 C 
BRANCH  30  31
ATOM     31  C   UNL     1      89.519  52.213  40.722  1.00  0.00    -0.052 C 
ATOM     32  C   UNL     1      90.318  53.280  40.539  1.00  0.00     0.010 C 
ATOM     33  C   UNL     1      89.948  51.081  41.617  1.00  0.00     0.041 C 
ENDBRANCH  30  31
BRANCH  30  34
ATOM     34  O   UNL     1      88.332  52.235  38.624  1.00  0.00    -0.388 OA
ATOM     35  H   UNL     1      87.885  51.487  38.191  1.00  0.00     0.211 HD
ENDBRANCH  30  34
ENDBRANCH  29  30
ENDBRANCH   5  29
TORSDOF 10
ENDMDL
MODEL 5
REMARK VINA RESULT:    -9.218      0.960      4.803
REMARK INTER + INTRA:         -14.645
REMARK INTER:                 -13.197
REMARK INTRA:                  -1.448
REMARK UNBOUND:                -1.116
REMARK SMILES C=C(C)C(O)Cc1cc([C@@H]2CC(=O)c3c(O)cc(O)cc3O2)cc(CC=C(C)C)c1O
REMARK SMILES IDX 24 1 23 2 9 3 8 4 7 5 30 6 25 7 26 8 27 9 28 10 29 11 31 12
REMARK SMILES IDX 10 14 11 15 22 16 12 17 21 18 13 19 14 20 20 21 15 22 18 23
REMARK SMILES IDX 17 24 16 25 19 27 6 29 4 30 2 31 1 32 3 33 5 34
REMARK H PARENT 31 13 16 26 19 28 5 35
ROOT
ATOM      1  C   UNL     1      88.270  50.161  42.901  1.00  0.00    -0.002 A 
ATOM      2  C   UNL     1      87.856  51.344  43.531  1.00  0.00     0.015 A 
ATOM      3  C   UNL     1      86.722  51.375  44.355  1.00  0.00    -0.006 A 
ATOM      4  C   UNL     1      85.996  50.190  44.543  1.00  0.00     0.015 A 
ATOM      5  C   UNL     1      86.381  48.991  43.919  1.00  0.00    -0.003 A 
ATOM      6  C   UNL     1      87.511  48.998  43.087  1.00  0.00     0.122 A 
ENDROOT
BRANCH   1   7
ATOM      7  C   UNL     1      89.492  50.188  42.009  1.00  0.00     0.066 C 
BRANCH   7   8
ATOM      8  C   UNL     1      89.945  51.594  41.713  1.00  0.00    -0.023 C 
ATOM      9  C   UNL     1      89.716  52.333  40.610  1.00  0.00    -0.080 C 
ATOM     10  C   UNL     1      90.239  53.742  40.511  1.00  0.00     0.039 C 
ATOM     11  C   UNL     1      88.958  51.871  39.396  1.00  0.00     0.039 C 
ENDBRANCH   7   8
ENDBRANCH   1   7
BRANCH   6  12
ATOM     12  O   UNL     1      87.912  47.863  42.439  1.00  0.00    -0.507 OA
ATOM     13  H   UNL     1      88.827  47.988  42.142  1.00  0.00     0.293 HD
ENDBRANCH   6  12
BRANCH   3  14
ATOM     14  C   UNL     1      86.262  52.664  45.012  1.00  0.00     0.211 C 
ATOM     15  C   UNL     1      84.928  52.457  45.716  1.00  0.00     0.131 C 
ATOM     16  O   UNL     1      86.160  53.683  44.003  1.00  0.00    -0.484 OA
ATOM     17  C   UNL     1      84.530  53.758  46.350  1.00  0.00     0.174 C 
ATOM     18  C   UNL     1      85.705  54.879  44.494  1.00  0.00     0.138 A 
ATOM     19  O   UNL     1      83.858  53.825  47.377  1.00  0.00    -0.294 OA
ATOM     20  C   UNL     1      84.924  54.991  45.647  1.00  0.00     0.102 A 
ATOM     21  C   UNL     1      86.035  56.020  43.765  1.00  0.00     0.093 A 
ATOM     22  C   UNL     1      84.504  56.252  46.086  1.00  0.00     0.133 A 
ATOM     23  C   UNL     1      85.609  57.268  44.212  1.00  0.00     0.123 A 
ATOM     24  C   UNL     1      84.850  57.397  45.371  1.00  0.00     0.093 A 
BRANCH  22  25
ATOM     25  O   UNL     1      83.741  56.435  47.207  1.00  0.00    -0.507 OA
ATOM     26  H   UNL     1      83.181  55.635  47.332  1.00  0.00     0.293 HD
ENDBRANCH  22  25
BRANCH  23  27
ATOM     27  O   UNL     1      85.964  58.359  43.474  1.00  0.00    -0.508 OA
ATOM     28  H   UNL     1      86.135  59.103  44.075  1.00  0.00     0.293 HD
ENDBRANCH  23  27
ENDBRANCH   3  14
BRANCH   5  29
ATOM     29  C   UNL     1      85.603  47.725  44.222  1.00  0.00     0.075 C 
BRANCH  29  30
ATOM     30  C   UNL     1      84.600  47.378  43.103  1.00  0.00     0.144 C 
BRANCH  30  31
ATOM     31  C   UNL     1      83.169  47.671  43.522  1.00  0.00    -0.052 C 
ATOM     32  C   UNL     1      82.653  48.910  43.605  1.00  0.00     0.010 C 
ATOM     33  C   UNL     1      82.339  46.471  43.892  1.00  0.00     0.041 C 
ENDBRANCH  30  31
BRANCH  30  34
ATOM     34  O   UNL     1      84.728  45.989  42.778  1.00  0.00    -0.388 OA
ATOM     35  H   UNL     1      84.692  45.507  43.622  1.00  0.00     0.211 HD
ENDBRANCH  30  34
ENDBRANCH  29  30
ENDBRANCH   5  29
TORSDOF 10
ENDMDL
MODEL 6
REMARK VINA RESULT:    -9.201      1.753      2.309
REMARK INTER + INTRA:         -14.620
REMARK INTER:                 -13.567
REMARK INTRA:                  -1.053
REMARK UNBOUND:                -1.116
REMARK SMILES C=C(C)C(O)Cc1cc([C@@H]2CC(=O)c3c(O)cc(O)cc3O2)cc(CC=C(C)C)c1O
REMARK SMILES IDX 24 1 23 2 9 3 8 4 7 5 30 6 25 7 26 8 27 9 28 10 29 11 31 12
REMARK SMILES IDX 10 14 11 15 22 16 12 17 21 18 13 19 14 20 20 21 15 22 18 23
REMARK SMILES IDX 17 24 16 25 19 27 6 29 4 30 2 31 1 32 3 33 5 34
REMARK H PARENT 31 13 16 26 19 28 5 35
ROOT
ATOM      1  C   UNL     1      85.115  49.615  44.047  1.00  0.00    -0.002 A 
ATOM      2  C   UNL     1      84.860  50.910  44.526  1.00  0.00     0.015 A 
ATOM      3  C   UNL     1      85.905  51.786  44.853  1.00  0.00    -0.006 A 
ATOM      4  C   UNL     1      87.226  51.344  44.695  1.00  0.00     0.015 A 
ATOM      5  C   UNL     1      87.513  50.050  44.225  1.00  0.00    -0.003 A 
ATOM      6  C   UNL     1      86.444  49.193  43.922  1.00  0.00     0.122 A 
ENDROOT
BRANCH   1   7
ATOM      7  C   UNL     1      83.949  48.707  43.723  1.00  0.00     0.066 C 
BRANCH   7   8
ATOM      8  C   UNL     1      82.715  49.482  43.341  1.00  0.00    -0.023 C 
ATOM      9  C   UNL     1      81.429  49.083  43.386  1.00  0.00    -0.080 C 
ATOM     10  C   UNL     1      80.323  50.022  42.980  1.00  0.00     0.039 C 
ATOM     11  C   UNL     1      80.954  47.722  43.813  1.00  0.00     0.039 C 
ENDBRANCH   7   8
ENDBRANCH   1   7
BRANCH   6  12
ATOM     12  O   UNL     1      86.671  47.918  43.484  1.00  0.00    -0.507 OA
ATOM     13  H   UNL     1      86.489  47.886  42.531  1.00  0.00     0.293 HD
ENDBRANCH   6  12
BRANCH   3  14
ATOM     14  C   UNL     1      85.625  53.175  45.399  1.00  0.00     0.211 C 
ATOM     15  C   UNL     1      84.268  53.213  46.089  1.00  0.00     0.131 C 
ATOM     16  O   UNL     1      85.678  54.115  44.313  1.00  0.00    -0.484 OA
ATOM     17  C   UNL     1      84.052  54.603  46.612  1.00  0.00     0.174 C 
ATOM     18  C   UNL     1      85.392  55.398  44.700  1.00  0.00     0.138 A 
ATOM     19  O   UNL     1      83.386  54.845  47.616  1.00  0.00    -0.294 OA
ATOM     20  C   UNL     1      84.623  55.710  45.824  1.00  0.00     0.102 A 
ATOM     21  C   UNL     1      85.887  56.419  43.892  1.00  0.00     0.093 A 
ATOM     22  C   UNL     1      84.381  57.048  46.155  1.00  0.00     0.133 A 
ATOM     23  C   UNL     1      85.638  57.747  44.232  1.00  0.00     0.123 A 
ATOM     24  C   UNL     1      84.893  58.072  45.362  1.00  0.00     0.093 A 
BRANCH  22  25
ATOM     25  O   UNL     1      83.641  57.424  47.243  1.00  0.00    -0.507 OA
ATOM     26  H   UNL     1      82.766  56.976  47.189  1.00  0.00     0.293 HD
ENDBRANCH  22  25
BRANCH  23  27
ATOM     27  O   UNL     1      86.150  58.715  43.420  1.00  0.00    -0.508 OA
ATOM     28  H   UNL     1      85.641  58.732  42.591  1.00  0.00     0.293 HD
ENDBRANCH  23  27
ENDBRANCH   3  14
BRANCH   5  29
ATOM     29  C   UNL     1      88.959  49.657  44.000  1.00  0.00     0.075 C 
BRANCH  29  30
ATOM     30  C   UNL     1      89.306  49.549  42.502  1.00  0.00     0.144 C 
BRANCH  30  31
ATOM     31  C   UNL     1      90.500  48.638  42.267  1.00  0.00    -0.052 C 
ATOM     32  C   UNL     1      90.820  48.119  41.068  1.00  0.00     0.010 C 
ATOM     33  C   UNL     1      91.311  48.298  43.489  1.00  0.00     0.041 C 
ENDBRANCH  30  31
BRANCH  30  34
ATOM     34  O   UNL     1      89.597  50.857  41.996  1.00  0.00    -0.388 OA
ATOM     35  H   UNL     1      90.558  50.978  42.089  1.00  0.00     0.211 HD
ENDBRANCH  30  34
ENDBRANCH  29  30
ENDBRANCH   5  29
TORSDOF 10
ENDMDL
MODEL 7
REMARK VINA RESULT:    -9.127      1.879      5.265
REMARK INTER + INTRA:         -14.511
REMARK INTER:                 -13.201
REMARK INTRA:                  -1.310
REMARK UNBOUND:                -1.116
REMARK SMILES C=C(C)C(O)Cc1cc([C@@H]2CC(=O)c3c(O)cc(O)cc3O2)cc(CC=C(C)C)c1O
REMARK SMILES IDX 24 1 23 2 9 3 8 4 7 5 30 6 25 7 26 8 27 9 28 10 29 11 31 12
REMARK SMILES IDX 10 14 11 15 22 16 12 17 21 18 13 19 14 20 20 21 15 22 18 23
REMARK SMILES IDX 17 24 16 25 19 27 6 29 4 30 2 31 1 32 3 33 5 34
REMARK H PARENT 31 13 16 26 19 28 5 35
ROOT
ATOM      1  C   UNL     1      87.447  49.653  42.252  1.00  0.00    -0.002 A 
ATOM      2  C   UNL     1      86.958  50.931  42.564  1.00  0.00     0.015 A 
ATOM      3  C   UNL     1      85.791  51.101  43.323  1.00  0.00    -0.006 A 
ATOM      4  C   UNL     1      85.109  49.960  43.772  1.00  0.00     0.015 A 
ATOM      5  C   UNL     1      85.570  48.668  43.468  1.00  0.00    -0.003 A 
ATOM      6  C   UNL     1      86.732  48.533  42.692  1.00  0.00     0.122 A 
ENDROOT
BRANCH   1   7
ATOM      7  C   UNL     1      88.702  49.529  41.417  1.00  0.00     0.066 C 
BRANCH   7   8
ATOM      8  C   UNL     1      89.950  49.566  42.259  1.00  0.00    -0.023 C 
ATOM      9  C   UNL     1      90.737  48.539  42.636  1.00  0.00    -0.080 C 
ATOM     10  C   UNL     1      91.968  48.784  43.469  1.00  0.00     0.039 C 
ATOM     11  C   UNL     1      90.498  47.092  42.301  1.00  0.00     0.039 C 
ENDBRANCH   7   8
ENDBRANCH   1   7
BRANCH   6  12
ATOM     12  O   UNL     1      87.207  47.297  42.351  1.00  0.00    -0.507 OA
ATOM     13  H   UNL     1      87.182  47.217  41.384  1.00  0.00     0.293 HD
ENDBRANCH   6  12
BRANCH   3  14
ATOM     14  C   UNL     1      85.250  52.485  43.634  1.00  0.00     0.211 C 
ATOM     15  C   UNL     1      86.001  53.543  42.837  1.00  0.00     0.131 C 
ATOM     16  O   UNL     1      85.371  52.720  45.047  1.00  0.00    -0.484 OA
ATOM     17  C   UNL     1      85.418  54.883  43.179  1.00  0.00     0.174 C 
ATOM     18  C   UNL     1      84.947  53.968  45.420  1.00  0.00     0.138 A 
ATOM     19  O   UNL     1      85.392  55.823  42.389  1.00  0.00    -0.294 OA
ATOM     20  C   UNL     1      84.922  55.064  44.555  1.00  0.00     0.102 A 
ATOM     21  C   UNL     1      84.554  54.123  46.748  1.00  0.00     0.093 A 
ATOM     22  C   UNL     1      84.469  56.307  45.014  1.00  0.00     0.133 A 
ATOM     23  C   UNL     1      84.107  55.365  47.193  1.00  0.00     0.123 A 
ATOM     24  C   UNL     1      84.055  56.460  46.334  1.00  0.00     0.093 A 
BRANCH  22  25
ATOM     25  O   UNL     1      84.415  57.420  44.219  1.00  0.00    -0.507 OA
ATOM     26  H   UNL     1      83.894  57.199  43.415  1.00  0.00     0.293 HD
ENDBRANCH  22  25
BRANCH  23  27
ATOM     27  O   UNL     1      83.721  55.469  48.496  1.00  0.00    -0.508 OA
ATOM     28  H   UNL     1      82.755  55.367  48.547  1.00  0.00     0.293 HD
ENDBRANCH  23  27
ENDBRANCH   3  14
BRANCH   5  29
ATOM     29  C   UNL     1      84.835  47.474  44.046  1.00  0.00     0.075 C 
BRANCH  29  30
ATOM     30  C   UNL     1      83.811  46.887  43.055  1.00  0.00     0.144 C 
BRANCH  30  31
ATOM     31  C   UNL     1      82.389  47.279  43.420  1.00  0.00    -0.052 C 
ATOM     32  C   UNL     1      81.824  48.450  43.076  1.00  0.00     0.010 C 
ATOM     33  C   UNL     1      81.629  46.278  44.249  1.00  0.00     0.041 C 
ENDBRANCH  30  31
BRANCH  30  34
ATOM     34  O   UNL     1      83.928  45.460  43.054  1.00  0.00    -0.388 OA
ATOM     35  H   UNL     1      83.080  45.117  42.722  1.00  0.00     0.211 HD
ENDBRANCH  30  34
ENDBRANCH  29  30
ENDBRANCH   5  29
TORSDOF 10
ENDMDL
MODEL 8
REMARK VINA RESULT:    -9.080      2.841      6.903
REMARK INTER + INTRA:         -14.442
REMARK INTER:                 -13.102
REMARK INTRA:                  -1.340
REMARK UNBOUND:                -1.116
REMARK SMILES C=C(C)C(O)Cc1cc([C@@H]2CC(=O)c3c(O)cc(O)cc3O2)cc(CC=C(C)C)c1O
REMARK SMILES IDX 24 1 23 2 9 3 8 4 7 5 30 6 25 7 26 8 27 9 28 10 29 11 31 12
REMARK SMILES IDX 10 14 11 15 22 16 12 17 21 18 13 19 14 20 20 21 15 22 18 23
REMARK SMILES IDX 17 24 16 25 19 27 6 29 4 30 2 31 1 32 3 33 5 34
REMARK H PARENT 31 13 16 26 19 28 5 35
ROOT
ATOM      1  C   UNL     1      87.933  51.922  41.853  1.00  0.00    -0.002 A 
ATOM      2  C   UNL     1      86.898  51.062  42.253  1.00  0.00     0.015 A 
ATOM      3  C   UNL     1      85.835  51.518  43.046  1.00  0.00    -0.006 A 
ATOM      4  C   UNL     1      85.821  52.864  43.441  1.00  0.00     0.015 A 
ATOM      5  C   UNL     1      86.848  53.746  43.063  1.00  0.00    -0.003 A 
ATOM      6  C   UNL     1      87.905  53.254  42.283  1.00  0.00     0.122 A 
ENDROOT
BRANCH   1   7
ATOM      7  C   UNL     1      89.063  51.372  41.010  1.00  0.00     0.066 C 
BRANCH   7   8
ATOM      8  C   UNL     1      90.056  50.593  41.831  1.00  0.00    -0.023 C 
ATOM      9  C   UNL     1      90.113  49.262  42.034  1.00  0.00    -0.080 C 
ATOM     10  C   UNL     1      91.209  48.664  42.878  1.00  0.00     0.039 C 
ATOM     11  C   UNL     1      89.141  48.256  41.484  1.00  0.00     0.039 C 
ENDBRANCH   7   8
ENDBRANCH   1   7
BRANCH   6  12
ATOM     12  O   UNL     1      88.938  54.068  41.909  1.00  0.00    -0.507 OA
ATOM     13  H   UNL     1      88.592  54.739  41.299  1.00  0.00     0.293 HD
ENDBRANCH   6  12
BRANCH   3  14
ATOM     14  C   UNL     1      84.733  50.578  43.500  1.00  0.00     0.211 C 
ATOM     15  C   UNL     1      85.132  49.129  43.253  1.00  0.00     0.131 C 
ATOM     16  O   UNL     1      83.526  50.908  42.794  1.00  0.00    -0.484 OA
ATOM     17  C   UNL     1      84.012  48.251  43.727  1.00  0.00     0.174 C 
ATOM     18  C   UNL     1      82.479  50.080  43.105  1.00  0.00     0.138 A 
ATOM     19  O   UNL     1      84.189  47.117  44.166  1.00  0.00    -0.294 OA
ATOM     20  C   UNL     1      82.644  48.779  43.587  1.00  0.00     0.102 A 
ATOM     21  C   UNL     1      81.198  50.585  42.892  1.00  0.00     0.093 A 
ATOM     22  C   UNL     1      81.521  47.999  43.887  1.00  0.00     0.133 A 
ATOM     23  C   UNL     1      80.090  49.798  43.193  1.00  0.00     0.123 A 
ATOM     24  C   UNL     1      80.239  48.508  43.695  1.00  0.00     0.093 A 
BRANCH  22  25
ATOM     25  O   UNL     1      81.609  46.719  44.365  1.00  0.00    -0.507 OA
ATOM     26  H   UNL     1      81.902  46.761  45.304  1.00  0.00     0.293 HD
ENDBRANCH  22  25
BRANCH  23  27
ATOM     27  O   UNL     1      78.855  50.335  42.979  1.00  0.00    -0.508 OA
ATOM     28  H   UNL     1      78.779  50.587  42.043  1.00  0.00     0.293 HD
ENDBRANCH  23  27
ENDBRANCH   3  14
BRANCH   5  29
ATOM     29  C   UNL     1      86.737  55.207  43.454  1.00  0.00     0.075 C 
BRANCH  29  30
ATOM     30  C   UNL     1      86.018  55.394  44.805  1.00  0.00     0.144 C 
BRANCH  30  31
ATOM     31  C   UNL     1      85.545  56.826  44.994  1.00  0.00    -0.052 C 
ATOM     32  C   UNL     1      85.932  57.852  44.215  1.00  0.00     0.010 C 
ATOM     33  C   UNL     1      84.623  57.059  46.161  1.00  0.00     0.041 C 
ENDBRANCH  30  31
BRANCH  30  34
ATOM     34  O   UNL     1      86.916  55.044  45.863  1.00  0.00    -0.388 OA
ATOM     35  H   UNL     1      87.646  55.686  45.826  1.00  0.00     0.211 HD
ENDBRANCH  30  34
ENDBRANCH  29  30
ENDBRANCH   5  29
TORSDOF 10
ENDMDL
MODEL 9
REMARK VINA RESULT:    -8.962      3.106      6.903
REMARK INTER + INTRA:         -14.269
REMARK INTER:                 -13.153
REMARK INTRA:                  -1.116
REMARK UNBOUND:                -1.116
REMARK SMILES C=C(C)C(O)Cc1cc([C@@H]2CC(=O)c3c(O)cc(O)cc3O2)cc(CC=C(C)C)c1O
REMARK SMILES IDX 24 1 23 2 9 3 8 4 7 5 30 6 25 7 26 8 27 9 28 10 29 11 31 12
REMARK SMILES IDX 10 14 11 15 22 16 12 17 21 18 13 19 14 20 20 21 15 22 18 23
REMARK SMILES IDX 17 24 16 25 19 27 6 29 4 30 2 31 1 32 3 33 5 34
REMARK H PARENT 31 13 16 26 19 28 5 35
ROOT
ATOM      1  C   UNL     1      86.812  52.833  42.980  1.00  0.00    -0.002 A 
ATOM      2  C   UNL     1      85.673  52.125  43.392  1.00  0.00     0.015 A 
ATOM      3  C   UNL     1      85.580  50.735  43.231  1.00  0.00    -0.006 A 
ATOM      4  C   UNL     1      86.655  50.053  42.644  1.00  0.00     0.015 A 
ATOM      5  C   UNL     1      87.805  50.736  42.214  1.00  0.00    -0.003 A 
ATOM      6  C   UNL     1      87.860  52.128  42.374  1.00  0.00     0.122 A 
ENDROOT
BRANCH   1   7
ATOM      7  C   UNL     1      86.854  54.334  43.164  1.00  0.00     0.066 C 
BRANCH   7   8
ATOM      8  C   UNL     1      86.550  54.740  44.582  1.00  0.00    -0.023 C 
ATOM      9  C   UNL     1      86.311  55.974  45.067  1.00  0.00    -0.080 C 
ATOM     10  C   UNL     1      86.000  56.176  46.527  1.00  0.00     0.039 C 
ATOM     11  C   UNL     1      86.329  57.244  44.261  1.00  0.00     0.039 C 
ENDBRANCH   7   8
ENDBRANCH   1   7
BRANCH   6  12
ATOM     12  O   UNL     1      88.948  52.840  41.951  1.00  0.00    -0.507 OA
ATOM     13  H   UNL     1      89.073  52.670  41.003  1.00  0.00     0.293 HD
ENDBRANCH   6  12
BRANCH   3  14
ATOM     14  C   UNL     1      84.333  49.977  43.652  1.00  0.00     0.211 C 
ATOM     15  C   UNL     1      84.486  48.492  43.355  1.00  0.00     0.131 C 
ATOM     16  O   UNL     1      83.203  50.528  42.956  1.00  0.00    -0.484 OA
ATOM     17  C   UNL     1      83.232  47.797  43.797  1.00  0.00     0.174 C 
ATOM     18  C   UNL     1      82.030  49.877  43.238  1.00  0.00     0.138 A 
ATOM     19  O   UNL     1      83.215  46.635  44.196  1.00  0.00    -0.294 OA
ATOM     20  C   UNL     1      81.972  48.551  43.674  1.00  0.00     0.102 A 
ATOM     21  C   UNL     1      80.853  50.595  43.041  1.00  0.00     0.093 A 
ATOM     22  C   UNL     1      80.733  47.959  43.946  1.00  0.00     0.133 A 
ATOM     23  C   UNL     1      79.627  49.994  43.314  1.00  0.00     0.123 A 
ATOM     24  C   UNL     1      79.555  48.681  43.771  1.00  0.00     0.093 A 
BRANCH  22  25
ATOM     25  O   UNL     1      80.603  46.667  44.379  1.00  0.00    -0.507 OA
ATOM     26  H   UNL     1      81.169  46.095  43.813  1.00  0.00     0.293 HD
ENDBRANCH  22  25
BRANCH  23  27
ATOM     27  O   UNL     1      78.500  50.738  43.118  1.00  0.00    -0.508 OA
ATOM     28  H   UNL     1      78.144  50.542  42.235  1.00  0.00     0.293 HD
ENDBRANCH  23  27
ENDBRANCH   3  14
BRANCH   5  29
ATOM     29  C   UNL     1      88.967  49.935  41.658  1.00  0.00     0.075 C 
BRANCH  29  30
ATOM     30  C   UNL     1      88.868  48.440  42.020  1.00  0.00     0.144 C 
BRANCH  30  31
ATOM     31  C   UNL     1      90.223  47.863  42.395  1.00  0.00    -0.052 C 
ATOM     32  C   UNL     1      90.508  46.548  42.376  1.00  0.00     0.010 C 
ATOM     33  C   UNL     1      91.256  48.862  42.843  1.00  0.00     0.041 C 
ENDBRANCH  30  31
BRANCH  30  34
ATOM     34  O   UNL     1      88.336  47.723  40.901  1.00  0.00    -0.388 OA
ATOM     35  H   UNL     1      88.087  46.843  41.234  1.00  0.00     0.211 HD
ENDBRANCH  30  34
ENDBRANCH  29  30
ENDBRANCH   5  29
TORSDOF 10
ENDMDL
