MODEL 1
REMARK VINA RESULT:    -7.871      0.000      0.000
REMARK INTER + INTRA:          -7.847
REMARK INTER:                  -8.020
REMARK INTRA:                   0.173
REMARK UNBOUND:                 1.635
REMARK SMILES CC(=O)O[C@H]1CC[C@]2(C)[C@H]3CC[C@]4(C)C(=CC[C@@]5(C(=O)O)CCC(C)(C)C[C@H]54)[C@]3(C)CC[C@H]2C1(C)C
REMARK SMILES IDX 5 1 6 2 7 3 8 4 33 5 34 6 35 7 36 8 32 9 31 10 29 11 10 12
REMARK SMILES IDX 11 13 12 14 13 15 15 16 16 17 17 18 18 19 28 20 27 21 24 22
REMARK SMILES IDX 25 23 26 24 23 25 22 26 14 27 30 28 9 29 4 30 2 31 3 32 1 33
REMARK SMILES IDX 19 34 20 35 21 36
REMARK H PARENT 21 37
ROOT
ATOM      1  C   UNL     1      86.168  54.905  43.155  1.00  0.00     0.182 C 
ATOM      2  C   UNL     1      87.187  54.099  42.351  1.00  0.00     0.046 C 
ATOM      3  C   UNL     1      87.611  52.799  43.042  1.00  0.00     0.011 C 
ATOM      4  C   UNL     1      86.462  52.005  43.755  1.00  0.00    -0.025 C 
ATOM      5  C   UNL     1      85.083  52.535  43.235  1.00  0.00     0.005 C 
ATOM      6  C   UNL     1      84.844  54.095  43.371  1.00  0.00     0.005 C 
ATOM      7  C   UNL     1      83.867  54.515  42.234  1.00  0.00     0.015 C 
ATOM      8  C   UNL     1      84.160  54.498  44.695  1.00  0.00     0.015 C 
ATOM      9  C   UNL     1      83.915  51.680  43.759  1.00  0.00     0.006 C 
ATOM     10  C   UNL     1      84.062  50.210  43.367  1.00  0.00     0.012 C 
ATOM     11  C   UNL     1      85.398  49.534  43.798  1.00  0.00    -0.008 C 
ATOM     12  C   UNL     1      86.578  50.467  43.360  1.00  0.00     0.005 C 
ATOM     13  C   UNL     1      87.972  49.854  43.639  1.00  0.00     0.006 C 
ATOM     14  C   UNL     1      88.002  48.331  43.755  1.00  0.00     0.012 C 
ATOM     15  C   UNL     1      86.980  47.585  42.862  1.00  0.00    -0.007 C 
ATOM     16  C   UNL     1      85.565  48.143  43.106  1.00  0.00    -0.062 C 
ATOM     17  C   UNL     1      84.517  47.398  42.702  1.00  0.00    -0.025 C 
ATOM     18  C   UNL     1      84.686  46.039  42.105  1.00  0.00     0.046 C 
ATOM     19  C   UNL     1      85.753  45.205  42.847  1.00  0.00     0.075 C 
ATOM     20  C   UNL     1      87.039  46.038  43.230  1.00  0.00     0.017 C 
ATOM     21  C   UNL     1      88.344  45.349  42.745  1.00  0.00     0.012 C 
ATOM     22  C   UNL     1      88.435  43.843  43.084  1.00  0.00    -0.035 C 
ATOM     23  C   UNL     1      89.683  43.264  42.383  1.00  0.00     0.011 C 
ATOM     24  C   UNL     1      88.621  43.639  44.600  1.00  0.00     0.011 C 
ATOM     25  C   UNL     1      87.178  43.083  42.600  1.00  0.00     0.007 C 
ATOM     26  C   UNL     1      86.124  43.989  41.963  1.00  0.00     0.020 C 
ATOM     27  C   UNL     1      87.369  47.820  41.378  1.00  0.00     0.016 C 
ATOM     28  C   UNL     1      85.337  49.268  45.323  1.00  0.00     0.016 C 
ATOM     29  C   UNL     1      86.620  52.202  45.283  1.00  0.00     0.012 C 
ENDROOT
BRANCH   1  30
ATOM     30  O   UNL     1      86.752  55.280  44.419  1.00  0.00    -0.462 OA
BRANCH  30  31
ATOM     31  C   UNL     1      86.498  56.540  44.865  1.00  0.00     0.302 C 
ATOM     32  O   UNL     1      86.464  57.550  44.178  1.00  0.00    -0.253 OA
ATOM     33  C   UNL     1      86.264  56.515  46.344  1.00  0.00     0.139 C 
ENDBRANCH  30  31
ENDBRANCH   1  30
BRANCH  19  34
ATOM     34  C   UNL     1      85.058  44.708  44.131  1.00  0.00     0.310 C 
ATOM     35  O   UNL     1      84.487  43.643  44.306  1.00  0.00    -0.252 OA
BRANCH  34  36
ATOM     36  O   UNL     1      85.153  45.568  45.168  1.00  0.00    -0.481 OA
ATOM     37  H   UNL     1      84.243  45.925  45.249  1.00  0.00     0.296 HD
ENDBRANCH  34  36
ENDBRANCH  19  34
TORSDOF 4
ENDMDL
MODEL 2
REMARK VINA RESULT:    -6.299      2.314      4.141
REMARK INTER + INTRA:          -5.953
REMARK INTER:                  -5.597
REMARK INTRA:                  -0.355
REMARK UNBOUND:                 1.635
REMARK SMILES CC(=O)O[C@H]1CC[C@]2(C)[C@H]3CC[C@]4(C)C(=CC[C@@]5(C(=O)O)CCC(C)(C)C[C@H]54)[C@]3(C)CC[C@H]2C1(C)C
REMARK SMILES IDX 5 1 6 2 7 3 8 4 33 5 34 6 35 7 36 8 32 9 31 10 29 11 10 12
REMARK SMILES IDX 11 13 12 14 13 15 15 16 16 17 17 18 18 19 28 20 27 21 24 22
REMARK SMILES IDX 25 23 26 24 23 25 22 26 14 27 30 28 9 29 4 30 2 31 3 32 1 33
REMARK SMILES IDX 19 34 20 35 21 36
REMARK H PARENT 21 37
ROOT
ATOM      1  C   UNL     1      84.547  55.823  46.988  1.00  0.00     0.182 C 
ATOM      2  C   UNL     1      84.409  54.465  47.673  1.00  0.00     0.046 C 
ATOM      3  C   UNL     1      84.099  53.324  46.699  1.00  0.00     0.011 C 
ATOM      4  C   UNL     1      84.872  53.369  45.336  1.00  0.00    -0.025 C 
ATOM      5  C   UNL     1      86.081  54.357  45.472  1.00  0.00     0.005 C 
ATOM      6  C   UNL     1      85.728  55.822  45.956  1.00  0.00     0.005 C 
ATOM      7  C   UNL     1      86.977  56.380  46.699  1.00  0.00     0.015 C 
ATOM      8  C   UNL     1      85.447  56.801  44.795  1.00  0.00     0.015 C 
ATOM      9  C   UNL     1      86.988  54.315  44.229  1.00  0.00     0.006 C 
ATOM     10  C   UNL     1      87.523  52.909  43.959  1.00  0.00     0.012 C 
ATOM     11  C   UNL     1      86.440  51.798  43.815  1.00  0.00    -0.008 C 
ATOM     12  C   UNL     1      85.455  51.919  45.027  1.00  0.00     0.005 C 
ATOM     13  C   UNL     1      84.387  50.799  45.057  1.00  0.00     0.006 C 
ATOM     14  C   UNL     1      84.762  49.523  44.304  1.00  0.00     0.012 C 
ATOM     15  C   UNL     1      86.270  49.172  44.320  1.00  0.00    -0.007 C 
ATOM     16  C   UNL     1      87.094  50.379  43.832  1.00  0.00    -0.062 C 
ATOM     17  C   UNL     1      88.364  50.156  43.439  1.00  0.00    -0.025 C 
ATOM     18  C   UNL     1      88.957  48.785  43.393  1.00  0.00     0.046 C 
ATOM     19  C   UNL     1      87.970  47.742  42.825  1.00  0.00     0.075 C 
ATOM     20  C   UNL     1      86.497  47.921  43.363  1.00  0.00     0.017 C 
ATOM     21  C   UNL     1      85.927  46.599  43.949  1.00  0.00     0.012 C 
ATOM     22  C   UNL     1      86.131  45.361  43.045  1.00  0.00    -0.035 C 
ATOM     23  C   UNL     1      85.687  44.110  43.833  1.00  0.00     0.011 C 
ATOM     24  C   UNL     1      85.241  45.454  41.790  1.00  0.00     0.011 C 
ATOM     25  C   UNL     1      87.613  45.206  42.632  1.00  0.00     0.007 C 
ATOM     26  C   UNL     1      88.512  46.329  43.151  1.00  0.00     0.020 C 
ATOM     27  C   UNL     1      86.677  48.838  45.780  1.00  0.00     0.016 C 
ATOM     28  C   UNL     1      85.761  51.959  42.432  1.00  0.00     0.016 C 
ATOM     29  C   UNL     1      83.878  53.818  44.236  1.00  0.00     0.012 C 
ENDROOT
BRANCH   1  30
ATOM     30  O   UNL     1      83.302  56.157  46.342  1.00  0.00    -0.462 OA
BRANCH  30  31
ATOM     31  C   UNL     1      82.647  57.259  46.798  1.00  0.00     0.302 C 
ATOM     32  O   UNL     1      83.119  58.382  46.896  1.00  0.00    -0.253 OA
ATOM     33  C   UNL     1      81.244  56.894  47.173  1.00  0.00     0.139 C 
ENDBRANCH  30  31
ENDBRANCH   1  30
BRANCH  19  34
ATOM     34  C   UNL     1      87.991  47.954  41.297  1.00  0.00     0.310 C 
ATOM     35  O   UNL     1      87.280  48.693  40.635  1.00  0.00    -0.252 OA
BRANCH  34  36
ATOM     36  O   UNL     1      88.953  47.248  40.664  1.00  0.00    -0.481 OA
ATOM     37  H   UNL     1      88.478  46.850  39.903  1.00  0.00     0.296 HD
ENDBRANCH  34  36
ENDBRANCH  19  34
TORSDOF 4
ENDMDL
MODEL 3
REMARK VINA RESULT:    -5.235      1.579      9.311
REMARK INTER + INTRA:          -4.672
REMARK INTER:                  -4.036
REMARK INTRA:                  -0.637
REMARK UNBOUND:                 1.635
REMARK SMILES CC(=O)O[C@H]1CC[C@]2(C)[C@H]3CC[C@]4(C)C(=CC[C@@]5(C(=O)O)CCC(C)(C)C[C@H]54)[C@]3(C)CC[C@H]2C1(C)C
REMARK SMILES IDX 5 1 6 2 7 3 8 4 33 5 34 6 35 7 36 8 32 9 31 10 29 11 10 12
REMARK SMILES IDX 11 13 12 14 13 15 15 16 16 17 17 18 18 19 28 20 27 21 24 22
REMARK SMILES IDX 25 23 26 24 23 25 22 26 14 27 30 28 9 29 4 30 2 31 3 32 1 33
REMARK SMILES IDX 19 34 20 35 21 36
REMARK H PARENT 21 37
ROOT
ATOM      1  C   UNL     1      87.030  45.958  42.506  1.00  0.00     0.182 C 
ATOM      2  C   UNL     1      85.628  46.523  42.720  1.00  0.00     0.046 C 
ATOM      3  C   UNL     1      85.564  47.586  43.822  1.00  0.00     0.011 C 
ATOM      4  C   UNL     1      86.763  48.595  43.858  1.00  0.00    -0.025 C 
ATOM      5  C   UNL     1      87.532  48.517  42.496  1.00  0.00     0.005 C 
ATOM      6  C   UNL     1      88.034  47.079  42.065  1.00  0.00     0.005 C 
ATOM      7  C   UNL     1      88.085  47.051  40.509  1.00  0.00     0.015 C 
ATOM      8  C   UNL     1      89.465  46.759  42.547  1.00  0.00     0.015 C 
ATOM      9  C   UNL     1      88.612  49.608  42.393  1.00  0.00     0.006 C 
ATOM     10  C   UNL     1      88.025  51.011  42.552  1.00  0.00     0.012 C 
ATOM     11  C   UNL     1      87.208  51.249  43.857  1.00  0.00    -0.008 C 
ATOM     12  C   UNL     1      86.186  50.072  44.013  1.00  0.00     0.005 C 
ATOM     13  C   UNL     1      85.237  50.247  45.224  1.00  0.00     0.006 C 
ATOM     14  C   UNL     1      85.060  51.686  45.708  1.00  0.00     0.012 C 
ATOM     15  C   UNL     1      85.127  52.764  44.599  1.00  0.00    -0.007 C 
ATOM     16  C   UNL     1      86.423  52.598  43.783  1.00  0.00    -0.062 C 
ATOM     17  C   UNL     1      86.828  53.637  43.027  1.00  0.00    -0.025 C 
ATOM     18  C   UNL     1      86.108  54.947  43.018  1.00  0.00     0.046 C 
ATOM     19  C   UNL     1      85.670  55.381  44.433  1.00  0.00     0.075 C 
ATOM     20  C   UNL     1      85.088  54.194  45.296  1.00  0.00     0.017 C 
ATOM     21  C   UNL     1      83.697  54.538  45.896  1.00  0.00     0.012 C 
ATOM     22  C   UNL     1      83.621  55.923  46.581  1.00  0.00    -0.035 C 
ATOM     23  C   UNL     1      82.149  56.197  46.956  1.00  0.00     0.011 C 
ATOM     24  C   UNL     1      84.438  55.925  47.888  1.00  0.00     0.011 C 
ATOM     25  C   UNL     1      84.128  57.041  45.641  1.00  0.00     0.007 C 
ATOM     26  C   UNL     1      84.635  56.524  44.294  1.00  0.00     0.020 C 
ATOM     27  C   UNL     1      83.908  52.570  43.658  1.00  0.00     0.016 C 
ATOM     28  C   UNL     1      88.205  51.378  45.036  1.00  0.00     0.016 C 
ATOM     29  C   UNL     1      87.669  48.221  45.058  1.00  0.00     0.012 C 
ENDROOT
BRANCH   1  30
ATOM     30  O   UNL     1      87.475  45.321  43.721  1.00  0.00    -0.462 OA
BRANCH  30  31
ATOM     31  C   UNL     1      87.283  43.977  43.817  1.00  0.00     0.302 C 
ATOM     32  O   UNL     1      86.203  43.411  43.893  1.00  0.00    -0.253 OA
ATOM     33  C   UNL     1      88.607  43.277  43.820  1.00  0.00     0.139 C 
ENDBRANCH  30  31
ENDBRANCH   1  30
BRANCH  19  34
ATOM     34  C   UNL     1      86.947  55.929  45.102  1.00  0.00     0.310 C 
ATOM     35  O   UNL     1      87.360  55.696  46.226  1.00  0.00    -0.252 OA
BRANCH  34  36
ATOM     36  O   UNL     1      87.682  56.726  44.297  1.00  0.00    -0.481 OA
ATOM     37  H   UNL     1      87.188  57.573  44.303  1.00  0.00     0.296 HD
ENDBRANCH  34  36
ENDBRANCH  19  34
TORSDOF 4
ENDMDL
