MODEL 1
REMARK VINA RESULT:    -6.101      0.000      0.000
REMARK INTER + INTRA:          -7.024
REMARK INTER:                  -6.996
REMARK INTRA:                  -0.028
REMARK UNBOUND:                 0.147
REMARK SMILES CC1(C)CC[C@]2(C(=O)O)CC[C@]3(C)C(=CC[C@@H]4[C@@]5(C)C[C@@H](O)[C@H](O)C(C)(C)[C@@H]5CC[C@]43C)[C@@H]2[C@@H]1O
REMARK SMILES IDX 21 1 20 2 18 3 19 4 28 5 25 6 23 7 26 8 27 9 29 10 30 11
REMARK SMILES IDX 31 12 17 13 16 14 15 15 14 16 12 17 13 18 11 19 10 20 6 21
REMARK SMILES IDX 33 22 34 23 2 24 1 25 3 26 4 27 5 28 32 29 22 30 24 32 7 34
REMARK SMILES IDX 8 35 9 36 35 38
REMARK H PARENT 22 31 24 33 9 37 35 39
ROOT
ATOM      1  C   UNL     1      85.985  56.036  46.832  1.00  0.00     0.144 C 
ATOM      2  C   UNL     1      86.661  54.745  46.373  1.00  0.00     0.042 C 
ATOM      3  C   UNL     1      85.820  53.910  45.362  1.00  0.00    -0.023 C 
ATOM      4  C   UNL     1      84.622  53.302  46.135  1.00  0.00     0.012 C 
ATOM      5  C   UNL     1      85.378  54.859  44.185  1.00  0.00     0.004 C 
ATOM      6  C   UNL     1      84.677  56.204  44.607  1.00  0.00    -0.003 C 
ATOM      7  C   UNL     1      85.583  56.922  45.646  1.00  0.00     0.149 C 
ATOM      8  C   UNL     1      83.242  56.024  45.141  1.00  0.00     0.014 C 
ATOM      9  C   UNL     1      84.560  57.146  43.376  1.00  0.00     0.014 C 
ATOM     10  C   UNL     1      84.647  54.065  43.082  1.00  0.00     0.005 C 
ATOM     11  C   UNL     1      85.554  52.991  42.473  1.00  0.00     0.008 C 
ATOM     12  C   UNL     1      86.189  52.003  43.493  1.00  0.00    -0.020 C 
ATOM     13  C   UNL     1      86.761  52.795  44.729  1.00  0.00     0.006 C 
ATOM     14  C   UNL     1      87.421  51.846  45.760  1.00  0.00     0.032 C 
ATOM     15  C   UNL     1      88.012  50.585  45.196  1.00  0.00    -0.026 C 
ATOM     16  C   UNL     1      88.015  50.222  43.895  1.00  0.00    -0.061 C 
ATOM     17  C   UNL     1      87.423  51.165  42.826  1.00  0.00    -0.006 C 
ATOM     18  C   UNL     1      88.583  52.112  42.380  1.00  0.00     0.017 C 
ATOM     19  C   UNL     1      86.959  50.433  41.533  1.00  0.00     0.013 C 
ATOM     20  C   UNL     1      87.811  49.224  41.138  1.00  0.00     0.020 C 
ATOM     21  C   UNL     1      87.898  48.193  42.279  1.00  0.00     0.077 C 
ATOM     22  C   UNL     1      88.579  48.835  43.525  1.00  0.00     0.062 C 
ATOM     23  C   UNL     1      90.139  48.820  43.500  1.00  0.00     0.128 C 
ATOM     24  C   UNL     1      90.743  47.444  43.117  1.00  0.00    -0.009 C 
ATOM     25  C   UNL     1      90.473  46.401  44.223  1.00  0.00     0.014 C 
ATOM     26  C   UNL     1      92.276  47.552  42.955  1.00  0.00     0.014 C 
ATOM     27  C   UNL     1      90.144  46.994  41.772  1.00  0.00     0.010 C 
ATOM     28  C   UNL     1      88.624  46.908  41.801  1.00  0.00     0.020 C 
ATOM     29  C   UNL     1      85.056  51.023  43.937  1.00  0.00     0.012 C 
ENDROOT
BRANCH   1  30
ATOM     30  O   UNL     1      86.900  56.786  47.647  1.00  0.00    -0.390 OA
ATOM     31  H   UNL     1      86.386  57.488  48.084  1.00  0.00     0.211 HD
ENDBRANCH   1  30
BRANCH   7  32
ATOM     32  O   UNL     1      84.948  58.098  46.160  1.00  0.00    -0.390 OA
ATOM     33  H   UNL     1      84.610  58.563  45.369  1.00  0.00     0.211 HD
ENDBRANCH   7  32
BRANCH  21  34
ATOM     34  C   UNL     1      86.494  47.707  42.670  1.00  0.00     0.310 C 
ATOM     35  O   UNL     1      85.909  47.903  43.724  1.00  0.00    -0.252 OA
BRANCH  34  36
ATOM     36  O   UNL     1      85.915  46.923  41.736  1.00  0.00    -0.481 OA
ATOM     37  H   UNL     1      84.963  47.147  41.800  1.00  0.00     0.296 HD
ENDBRANCH  34  36
ENDBRANCH  21  34
BRANCH  23  38
ATOM     38  O   UNL     1      90.646  49.794  42.589  1.00  0.00    -0.392 OA
ATOM     39  H   UNL     1      89.871  50.193  42.158  1.00  0.00     0.211 HD
ENDBRANCH  23  38
TORSDOF 5
ENDMDL
MODEL 2
REMARK VINA RESULT:    -6.099      1.883      3.597
REMARK INTER + INTRA:          -7.022
REMARK INTER:                  -6.952
REMARK INTRA:                  -0.070
REMARK UNBOUND:                 0.147
REMARK SMILES CC1(C)CC[C@]2(C(=O)O)CC[C@]3(C)C(=CC[C@@H]4[C@@]5(C)C[C@@H](O)[C@H](O)C(C)(C)[C@@H]5CC[C@]43C)[C@@H]2[C@@H]1O
REMARK SMILES IDX 21 1 20 2 18 3 19 4 28 5 25 6 23 7 26 8 27 9 29 10 30 11
REMARK SMILES IDX 31 12 17 13 16 14 15 15 14 16 12 17 13 18 11 19 10 20 6 21
REMARK SMILES IDX 33 22 34 23 2 24 1 25 3 26 4 27 5 28 32 29 22 30 24 32 7 34
REMARK SMILES IDX 8 35 9 36 35 38
REMARK H PARENT 22 31 24 33 9 37 35 39
ROOT
ATOM      1  C   UNL     1      83.035  56.359  46.043  1.00  0.00     0.144 C 
ATOM      2  C   UNL     1      83.346  54.935  45.589  1.00  0.00     0.042 C 
ATOM      3  C   UNL     1      84.699  54.789  44.831  1.00  0.00    -0.023 C 
ATOM      4  C   UNL     1      84.536  55.462  43.443  1.00  0.00     0.012 C 
ATOM      5  C   UNL     1      85.831  55.447  45.707  1.00  0.00     0.004 C 
ATOM      6  C   UNL     1      85.555  56.917  46.202  1.00  0.00    -0.003 C 
ATOM      7  C   UNL     1      84.165  56.946  46.897  1.00  0.00     0.149 C 
ATOM      8  C   UNL     1      85.651  57.981  45.091  1.00  0.00     0.014 C 
ATOM      9  C   UNL     1      86.609  57.318  47.272  1.00  0.00     0.014 C 
ATOM     10  C   UNL     1      87.219  55.226  45.072  1.00  0.00     0.005 C 
ATOM     11  C   UNL     1      87.551  53.734  44.962  1.00  0.00     0.008 C 
ATOM     12  C   UNL     1      86.493  52.873  44.215  1.00  0.00    -0.020 C 
ATOM     13  C   UNL     1      85.045  53.241  44.715  1.00  0.00     0.006 C 
ATOM     14  C   UNL     1      83.962  52.389  44.009  1.00  0.00     0.032 C 
ATOM     15  C   UNL     1      84.399  51.021  43.565  1.00  0.00    -0.026 C 
ATOM     16  C   UNL     1      85.629  50.488  43.731  1.00  0.00    -0.061 C 
ATOM     17  C   UNL     1      86.721  51.278  44.484  1.00  0.00    -0.006 C 
ATOM     18  C   UNL     1      86.558  50.924  45.998  1.00  0.00     0.017 C 
ATOM     19  C   UNL     1      88.171  50.856  44.108  1.00  0.00     0.013 C 
ATOM     20  C   UNL     1      88.346  49.368  43.792  1.00  0.00     0.020 C 
ATOM     21  C   UNL     1      87.397  48.910  42.669  1.00  0.00     0.077 C 
ATOM     22  C   UNL     1      85.916  49.105  43.112  1.00  0.00     0.062 C 
ATOM     23  C   UNL     1      85.330  47.941  43.971  1.00  0.00     0.128 C 
ATOM     24  C   UNL     1      85.612  46.533  43.386  1.00  0.00    -0.009 C 
ATOM     25  C   UNL     1      84.835  46.322  42.068  1.00  0.00     0.014 C 
ATOM     26  C   UNL     1      85.147  45.436  44.370  1.00  0.00     0.014 C 
ATOM     27  C   UNL     1      87.127  46.377  43.168  1.00  0.00     0.010 C 
ATOM     28  C   UNL     1      87.706  47.448  42.253  1.00  0.00     0.020 C 
ATOM     29  C   UNL     1      86.651  53.186  42.692  1.00  0.00     0.012 C 
ENDROOT
BRANCH   1  30
ATOM     30  O   UNL     1      81.841  56.351  46.843  1.00  0.00    -0.390 OA
ATOM     31  H   UNL     1      81.317  57.129  46.585  1.00  0.00     0.211 HD
ENDBRANCH   1  30
BRANCH   7  32
ATOM     32  O   UNL     1      83.802  58.280  47.268  1.00  0.00    -0.390 OA
ATOM     33  H   UNL     1      84.321  58.464  48.076  1.00  0.00     0.211 HD
ENDBRANCH   7  32
BRANCH  21  34
ATOM     34  C   UNL     1      87.648  49.726  41.390  1.00  0.00     0.310 C 
ATOM     35  O   UNL     1      86.873  50.485  40.832  1.00  0.00    -0.252 OA
BRANCH  34  36
ATOM     36  O   UNL     1      88.850  49.484  40.825  1.00  0.00    -0.481 OA
ATOM     37  H   UNL     1      88.651  48.828  40.124  1.00  0.00     0.296 HD
ENDBRANCH  34  36
ENDBRANCH  21  34
BRANCH  23  38
ATOM     38  O   UNL     1      85.844  47.978  45.302  1.00  0.00    -0.392 OA
ATOM     39  H   UNL     1      86.534  47.294  45.346  1.00  0.00     0.211 HD
ENDBRANCH  23  38
TORSDOF 5
ENDMDL
MODEL 3
REMARK VINA RESULT:    -5.428      2.515      8.710
REMARK INTER + INTRA:          -6.233
REMARK INTER:                  -6.050
REMARK INTRA:                  -0.183
REMARK UNBOUND:                 0.147
REMARK SMILES CC1(C)CC[C@]2(C(=O)O)CC[C@]3(C)C(=CC[C@@H]4[C@@]5(C)C[C@@H](O)[C@H](O)C(C)(C)[C@@H]5CC[C@]43C)[C@@H]2[C@@H]1O
REMARK SMILES IDX 21 1 20 2 18 3 19 4 28 5 25 6 23 7 26 8 27 9 29 10 30 11
REMARK SMILES IDX 31 12 17 13 16 14 15 15 14 16 12 17 13 18 11 19 10 20 6 21
REMARK SMILES IDX 33 22 34 23 2 24 1 25 3 26 4 27 5 28 32 29 22 30 24 32 7 34
REMARK SMILES IDX 8 35 9 36 35 38
REMARK H PARENT 22 31 24 33 9 37 35 39
ROOT
ATOM      1  C   UNL     1      85.428  44.410  42.317  1.00  0.00     0.144 C 
ATOM      2  C   UNL     1      85.097  45.900  42.263  1.00  0.00     0.042 C 
ATOM      3  C   UNL     1      85.975  46.782  43.200  1.00  0.00    -0.023 C 
ATOM      4  C   UNL     1      85.549  46.486  44.661  1.00  0.00     0.012 C 
ATOM      5  C   UNL     1      87.489  46.448  42.918  1.00  0.00     0.004 C 
ATOM      6  C   UNL     1      87.880  44.923  42.960  1.00  0.00    -0.003 C 
ATOM      7  C   UNL     1      86.910  44.144  42.028  1.00  0.00     0.149 C 
ATOM      8  C   UNL     1      87.902  44.321  44.379  1.00  0.00     0.014 C 
ATOM      9  C   UNL     1      89.313  44.731  42.391  1.00  0.00     0.014 C 
ATOM     10  C   UNL     1      88.418  47.379  43.724  1.00  0.00     0.005 C 
ATOM     11  C   UNL     1      88.207  48.847  43.341  1.00  0.00     0.008 C 
ATOM     12  C   UNL     1      86.741  49.355  43.447  1.00  0.00    -0.020 C 
ATOM     13  C   UNL     1      85.757  48.307  42.803  1.00  0.00     0.006 C 
ATOM     14  C   UNL     1      84.286  48.787  42.871  1.00  0.00     0.032 C 
ATOM     15  C   UNL     1      84.087  50.276  42.858  1.00  0.00    -0.026 C 
ATOM     16  C   UNL     1      85.064  51.206  42.791  1.00  0.00    -0.061 C 
ATOM     17  C   UNL     1      86.540  50.773  42.660  1.00  0.00    -0.006 C 
ATOM     18  C   UNL     1      86.823  50.623  41.131  1.00  0.00     0.017 C 
ATOM     19  C   UNL     1      87.553  51.837  43.172  1.00  0.00     0.013 C 
ATOM     20  C   UNL     1      87.131  53.290  42.939  1.00  0.00     0.020 C 
ATOM     21  C   UNL     1      85.753  53.589  43.560  1.00  0.00     0.077 C 
ATOM     22  C   UNL     1      84.666  52.693  42.895  1.00  0.00     0.062 C 
ATOM     23  C   UNL     1      84.092  53.245  41.554  1.00  0.00     0.128 C 
ATOM     24  C   UNL     1      83.693  54.743  41.616  1.00  0.00    -0.009 C 
ATOM     25  C   UNL     1      82.476  54.946  42.543  1.00  0.00     0.014 C 
ATOM     26  C   UNL     1      83.291  55.254  40.215  1.00  0.00     0.014 C 
ATOM     27  C   UNL     1      84.903  55.561  42.101  1.00  0.00     0.010 C 
ATOM     28  C   UNL     1      85.423  55.101  43.457  1.00  0.00     0.020 C 
ATOM     29  C   UNL     1      86.437  49.540  44.968  1.00  0.00     0.012 C 
ENDROOT
BRANCH   1  30
ATOM     30  O   UNL     1      84.657  43.718  41.321  1.00  0.00    -0.390 OA
ATOM     31  H   UNL     1      84.350  44.384  40.681  1.00  0.00     0.211 HD
ENDBRANCH   1  30
BRANCH   7  32
ATOM     32  O   UNL     1      87.137  42.732  42.111  1.00  0.00    -0.390 OA
ATOM     33  H   UNL     1      86.945  42.397  41.213  1.00  0.00     0.211 HD
ENDBRANCH   7  32
BRANCH  21  34
ATOM     34  C   UNL     1      85.776  53.311  45.072  1.00  0.00     0.310 C 
ATOM     35  O   UNL     1      84.970  52.660  45.717  1.00  0.00    -0.252 OA
BRANCH  34  36
ATOM     36  O   UNL     1      86.780  53.939  45.720  1.00  0.00    -0.481 OA
ATOM     37  H   UNL     1      87.436  53.229  45.878  1.00  0.00     0.296 HD
ENDBRANCH  34  36
ENDBRANCH  21  34
BRANCH  23  38
ATOM     38  O   UNL     1      85.028  53.081  40.489  1.00  0.00    -0.392 OA
ATOM     39  H   UNL     1      85.569  52.307  40.721  1.00  0.00     0.211 HD
ENDBRANCH  23  38
TORSDOF 5
ENDMDL
MODEL 4
REMARK VINA RESULT:    -3.746      2.531      8.503
REMARK INTER + INTRA:          -4.256
REMARK INTER:                  -4.849
REMARK INTRA:                   0.593
REMARK UNBOUND:                 0.147
REMARK SMILES CC1(C)CC[C@]2(C(=O)O)CC[C@]3(C)C(=CC[C@@H]4[C@@]5(C)C[C@@H](O)[C@H](O)C(C)(C)[C@@H]5CC[C@]43C)[C@@H]2[C@@H]1O
REMARK SMILES IDX 21 1 20 2 18 3 19 4 28 5 25 6 23 7 26 8 27 9 29 10 30 11
REMARK SMILES IDX 31 12 17 13 16 14 15 15 14 16 12 17 13 18 11 19 10 20 6 21
REMARK SMILES IDX 33 22 34 23 2 24 1 25 3 26 4 27 5 28 32 29 22 30 24 32 7 34
REMARK SMILES IDX 8 35 9 36 35 38
REMARK H PARENT 22 31 24 33 9 37 35 39
ROOT
ATOM      1  C   UNL     1      83.751  46.032  42.223  1.00  0.00     0.144 C 
ATOM      2  C   UNL     1      83.802  47.502  42.633  1.00  0.00     0.042 C 
ATOM      3  C   UNL     1      84.849  47.818  43.742  1.00  0.00    -0.023 C 
ATOM      4  C   UNL     1      84.328  47.209  45.069  1.00  0.00     0.012 C 
ATOM      5  C   UNL     1      86.238  47.226  43.293  1.00  0.00     0.004 C 
ATOM      6  C   UNL     1      86.237  45.712  42.859  1.00  0.00    -0.003 C 
ATOM      7  C   UNL     1      85.127  45.512  41.790  1.00  0.00     0.149 C 
ATOM      8  C   UNL     1      86.075  44.724  44.030  1.00  0.00     0.014 C 
ATOM      9  C   UNL     1      87.591  45.357  42.183  1.00  0.00     0.014 C 
ATOM     10  C   UNL     1      87.351  47.614  44.289  1.00  0.00     0.005 C 
ATOM     11  C   UNL     1      87.520  49.135  44.373  1.00  0.00     0.008 C 
ATOM     12  C   UNL     1      86.224  49.929  44.703  1.00  0.00    -0.020 C 
ATOM     13  C   UNL     1      85.026  49.397  43.829  1.00  0.00     0.006 C 
ATOM     14  C   UNL     1      83.719  50.177  44.115  1.00  0.00     0.032 C 
ATOM     15  C   UNL     1      83.898  51.603  44.556  1.00  0.00    -0.026 C 
ATOM     16  C   UNL     1      85.076  52.241  44.718  1.00  0.00    -0.061 C 
ATOM     17  C   UNL     1      86.400  51.521  44.386  1.00  0.00    -0.006 C 
ATOM     18  C   UNL     1      86.674  51.776  42.868  1.00  0.00     0.017 C 
ATOM     19  C   UNL     1      87.634  52.101  45.138  1.00  0.00     0.013 C 
ATOM     20  C   UNL     1      87.592  53.613  45.370  1.00  0.00     0.020 C 
ATOM     21  C   UNL     1      86.317  54.038  46.124  1.00  0.00     0.077 C 
ATOM     22  C   UNL     1      85.057  53.678  45.280  1.00  0.00     0.062 C 
ATOM     23  C   UNL     1      84.670  54.731  44.197  1.00  0.00     0.128 C 
ATOM     24  C   UNL     1      84.655  56.190  44.724  1.00  0.00    -0.009 C 
ATOM     25  C   UNL     1      83.505  56.395  45.733  1.00  0.00     0.014 C 
ATOM     26  C   UNL     1      84.426  57.182  43.562  1.00  0.00     0.014 C 
ATOM     27  C   UNL     1      86.019  56.503  45.366  1.00  0.00     0.010 C 
ATOM     28  C   UNL     1      86.375  55.543  46.494  1.00  0.00     0.020 C 
ATOM     29  C   UNL     1      85.940  49.714  46.224  1.00  0.00     0.012 C 
ENDROOT
BRANCH   1  30
ATOM     30  O   UNL     1      82.856  45.882  41.108  1.00  0.00    -0.390 OA
ATOM     31  H   UNL     1      82.089  46.458  41.276  1.00  0.00     0.211 HD
ENDBRANCH   1  30
BRANCH   7  32
ATOM     32  O   UNL     1      84.994  44.130  41.436  1.00  0.00    -0.390 OA
ATOM     33  H   UNL     1      85.198  44.098  40.480  1.00  0.00     0.211 HD
ENDBRANCH   7  32
BRANCH  21  34
ATOM     34  C   UNL     1      86.234  53.321  47.481  1.00  0.00     0.310 C 
ATOM     35  O   UNL     1      86.649  52.207  47.757  1.00  0.00    -0.252 OA
BRANCH  34  36
ATOM     36  O   UNL     1      85.553  54.016  48.417  1.00  0.00    -0.481 OA
ATOM     37  H   UNL     1      86.195  54.692  48.718  1.00  0.00     0.296 HD
ENDBRANCH  34  36
ENDBRANCH  21  34
BRANCH  23  38
ATOM     38  O   UNL     1      85.562  54.672  43.084  1.00  0.00    -0.392 OA
ATOM     39  H   UNL     1      86.145  53.910  43.243  1.00  0.00     0.211 HD
ENDBRANCH  23  38
TORSDOF 5
ENDMDL
MODEL 5
REMARK VINA RESULT:    -3.592      3.545      6.315
REMARK INTER + INTRA:          -4.075
REMARK INTER:                  -3.907
REMARK INTRA:                  -0.168
REMARK UNBOUND:                 0.147
REMARK SMILES CC1(C)CC[C@]2(C(=O)O)CC[C@]3(C)C(=CC[C@@H]4[C@@]5(C)C[C@@H](O)[C@H](O)C(C)(C)[C@@H]5CC[C@]43C)[C@@H]2[C@@H]1O
REMARK SMILES IDX 21 1 20 2 18 3 19 4 28 5 25 6 23 7 26 8 27 9 29 10 30 11
REMARK SMILES IDX 31 12 17 13 16 14 15 15 14 16 12 17 13 18 11 19 10 20 6 21
REMARK SMILES IDX 33 22 34 23 2 24 1 25 3 26 4 27 5 28 32 29 22 30 24 32 7 34
REMARK SMILES IDX 8 35 9 36 35 38
REMARK H PARENT 22 31 24 33 9 37 35 39
ROOT
ATOM      1  C   UNL     1      80.642  46.465  43.747  1.00  0.00     0.144 C 
ATOM      2  C   UNL     1      82.115  46.776  43.493  1.00  0.00     0.042 C 
ATOM      3  C   UNL     1      82.410  48.278  43.208  1.00  0.00    -0.023 C 
ATOM      4  C   UNL     1      81.842  48.612  41.805  1.00  0.00     0.012 C 
ATOM      5  C   UNL     1      81.760  49.137  44.358  1.00  0.00     0.004 C 
ATOM      6  C   UNL     1      80.241  48.852  44.658  1.00  0.00    -0.003 C 
ATOM      7  C   UNL     1      80.064  47.324  44.878  1.00  0.00     0.149 C 
ATOM      8  C   UNL     1      79.278  49.380  43.576  1.00  0.00     0.014 C 
ATOM      9  C   UNL     1      79.825  49.555  45.981  1.00  0.00     0.014 C 
ATOM     10  C   UNL     1      82.123  50.629  44.205  1.00  0.00     0.005 C 
ATOM     11  C   UNL     1      83.637  50.847  44.287  1.00  0.00     0.008 C 
ATOM     12  C   UNL     1      84.484  49.999  43.295  1.00  0.00    -0.020 C 
ATOM     13  C   UNL     1      83.982  48.506  43.294  1.00  0.00     0.006 C 
ATOM     14  C   UNL     1      84.815  47.624  42.331  1.00  0.00     0.032 C 
ATOM     15  C   UNL     1      86.240  48.055  42.125  1.00  0.00    -0.026 C 
ATOM     16  C   UNL     1      86.838  49.121  42.698  1.00  0.00    -0.061 C 
ATOM     17  C   UNL     1      86.063  49.992  43.711  1.00  0.00    -0.006 C 
ATOM     18  C   UNL     1      86.283  49.340  45.114  1.00  0.00     0.017 C 
ATOM     19  C   UNL     1      86.609  51.445  43.834  1.00  0.00     0.013 C 
ATOM     20  C   UNL     1      88.126  51.577  43.672  1.00  0.00     0.020 C 
ATOM     21  C   UNL     1      88.609  50.985  42.335  1.00  0.00     0.077 C 
ATOM     22  C   UNL     1      88.282  49.462  42.279  1.00  0.00     0.062 C 
ATOM     23  C   UNL     1      89.332  48.541  42.973  1.00  0.00     0.128 C 
ATOM     24  C   UNL     1      90.798  48.864  42.586  1.00  0.00    -0.009 C 
ATOM     25  C   UNL     1      91.062  48.517  41.105  1.00  0.00     0.014 C 
ATOM     26  C   UNL     1      91.779  48.024  43.434  1.00  0.00     0.014 C 
ATOM     27  C   UNL     1      91.071  50.353  42.864  1.00  0.00     0.010 C 
ATOM     28  C   UNL     1      90.117  51.278  42.119  1.00  0.00     0.020 C 
ATOM     29  C   UNL     1      84.305  50.646  41.884  1.00  0.00     0.012 C 
ENDROOT
BRANCH   1  30
ATOM     30  O   UNL     1      80.507  45.087  44.131  1.00  0.00    -0.390 OA
ATOM     31  H   UNL     1      80.160  44.606  43.358  1.00  0.00     0.211 HD
ENDBRANCH   1  30
BRANCH   7  32
ATOM     32  O   UNL     1      78.683  46.982  45.042  1.00  0.00    -0.390 OA
ATOM     33  H   UNL     1      78.392  46.692  44.154  1.00  0.00     0.211 HD
ENDBRANCH   7  32
BRANCH  21  34
ATOM     34  C   UNL     1      87.917  51.689  41.156  1.00  0.00     0.310 C 
ATOM     35  O   UNL     1      87.453  51.172  40.154  1.00  0.00    -0.252 OA
BRANCH  34  36
ATOM     36  O   UNL     1      87.914  53.036  41.261  1.00  0.00    -0.481 OA
ATOM     37  H   UNL     1      88.862  53.276  41.214  1.00  0.00     0.296 HD
ENDBRANCH  34  36
ENDBRANCH  21  34
BRANCH  23  38
ATOM     38  O   UNL     1      89.222  48.619  44.394  1.00  0.00    -0.392 OA
ATOM     39  H   UNL     1      89.018  47.719  44.701  1.00  0.00     0.211 HD
ENDBRANCH  23  38
TORSDOF 5
ENDMDL
MODEL 6
REMARK VINA RESULT:    -3.432      2.336      3.133
REMARK INTER + INTRA:          -3.887
REMARK INTER:                  -3.912
REMARK INTRA:                   0.025
REMARK UNBOUND:                 0.147
REMARK SMILES CC1(C)CC[C@]2(C(=O)O)CC[C@]3(C)C(=CC[C@@H]4[C@@]5(C)C[C@@H](O)[C@H](O)C(C)(C)[C@@H]5CC[C@]43C)[C@@H]2[C@@H]1O
REMARK SMILES IDX 21 1 20 2 18 3 19 4 28 5 25 6 23 7 26 8 27 9 29 10 30 11
REMARK SMILES IDX 31 12 17 13 16 14 15 15 14 16 12 17 13 18 11 19 10 20 6 21
REMARK SMILES IDX 33 22 34 23 2 24 1 25 3 26 4 27 5 28 32 29 22 30 24 32 7 34
REMARK SMILES IDX 8 35 9 36 35 38
REMARK H PARENT 22 31 24 33 9 37 35 39
ROOT
ATOM      1  C   UNL     1      86.683  54.757  45.832  1.00  0.00     0.144 C 
ATOM      2  C   UNL     1      86.747  53.263  45.523  1.00  0.00     0.042 C 
ATOM      3  C   UNL     1      85.396  52.653  45.042  1.00  0.00    -0.023 C 
ATOM      4  C   UNL     1      84.436  52.615  46.259  1.00  0.00     0.012 C 
ATOM      5  C   UNL     1      84.853  53.533  43.854  1.00  0.00     0.004 C 
ATOM      6  C   UNL     1      84.770  55.082  44.122  1.00  0.00    -0.003 C 
ATOM      7  C   UNL     1      86.154  55.563  44.639  1.00  0.00     0.149 C 
ATOM      8  C   UNL     1      83.637  55.493  45.083  1.00  0.00     0.014 C 
ATOM      9  C   UNL     1      84.494  55.834  42.790  1.00  0.00     0.014 C 
ATOM     10  C   UNL     1      83.579  52.911  43.245  1.00  0.00     0.005 C 
ATOM     11  C   UNL     1      83.856  51.515  42.676  1.00  0.00     0.008 C 
ATOM     12  C   UNL     1      84.503  50.510  43.672  1.00  0.00    -0.020 C 
ATOM     13  C   UNL     1      85.682  51.204  44.451  1.00  0.00     0.006 C 
ATOM     14  C   UNL     1      86.367  50.228  45.440  1.00  0.00     0.032 C 
ATOM     15  C   UNL     1      86.326  48.777  45.052  1.00  0.00    -0.026 C 
ATOM     16  C   UNL     1      85.756  48.269  43.938  1.00  0.00    -0.061 C 
ATOM     17  C   UNL     1      85.117  49.211  42.896  1.00  0.00    -0.006 C 
ATOM     18  C   UNL     1      86.258  49.619  41.910  1.00  0.00     0.017 C 
ATOM     19  C   UNL     1      84.029  48.526  42.017  1.00  0.00     0.013 C 
ATOM     20  C   UNL     1      84.296  47.054  41.696  1.00  0.00     0.020 C 
ATOM     21  C   UNL     1      84.488  46.218  42.975  1.00  0.00     0.077 C 
ATOM     22  C   UNL     1      85.725  46.736  43.768  1.00  0.00     0.062 C 
ATOM     23  C   UNL     1      87.096  46.167  43.288  1.00  0.00     0.128 C 
ATOM     24  C   UNL     1      87.098  44.629  43.092  1.00  0.00    -0.009 C 
ATOM     25  C   UNL     1      86.957  43.904  44.447  1.00  0.00     0.014 C 
ATOM     26  C   UNL     1      88.432  44.166  42.463  1.00  0.00     0.014 C 
ATOM     27  C   UNL     1      85.953  44.247  42.136  1.00  0.00     0.010 C 
ATOM     28  C   UNL     1      84.589  44.708  42.633  1.00  0.00     0.020 C 
ATOM     29  C   UNL     1      83.375  50.062  44.656  1.00  0.00     0.012 C 
ENDROOT
BRANCH   1  30
ATOM     30  O   UNL     1      88.004  55.235  46.132  1.00  0.00    -0.390 OA
ATOM     31  H   UNL     1      88.135  55.135  47.091  1.00  0.00     0.211 HD
ENDBRANCH   1  30
BRANCH   7  32
ATOM     32  O   UNL     1      86.114  56.945  45.014  1.00  0.00    -0.390 OA
ATOM     33  H   UNL     1      85.272  57.279  44.644  1.00  0.00     0.211 HD
ENDBRANCH   7  32
BRANCH  21  34
ATOM     34  C   UNL     1      83.242  46.316  43.871  1.00  0.00     0.310 C 
ATOM     35  O   UNL     1      82.179  46.855  43.605  1.00  0.00    -0.252 OA
BRANCH  34  36
ATOM     36  O   UNL     1      83.421  45.794  45.103  1.00  0.00    -0.481 OA
ATOM     37  H   UNL     1      83.976  46.459  45.560  1.00  0.00     0.296 HD
ENDBRANCH  34  36
ENDBRANCH  21  34
BRANCH  23  38
ATOM     38  O   UNL     1      87.498  46.771  42.059  1.00  0.00    -0.392 OA
ATOM     39  H   UNL     1      88.251  46.247  41.733  1.00  0.00     0.211 HD
ENDBRANCH  23  38
TORSDOF 5
ENDMDL
MODEL 7
REMARK VINA RESULT:    -3.348      2.202      4.634
REMARK INTER + INTRA:          -3.788
REMARK INTER:                  -3.772
REMARK INTRA:                  -0.016
REMARK UNBOUND:                 0.147
REMARK SMILES CC1(C)CC[C@]2(C(=O)O)CC[C@]3(C)C(=CC[C@@H]4[C@@]5(C)C[C@@H](O)[C@H](O)C(C)(C)[C@@H]5CC[C@]43C)[C@@H]2[C@@H]1O
REMARK SMILES IDX 21 1 20 2 18 3 19 4 28 5 25 6 23 7 26 8 27 9 29 10 30 11
REMARK SMILES IDX 31 12 17 13 16 14 15 15 14 16 12 17 13 18 11 19 10 20 6 21
REMARK SMILES IDX 33 22 34 23 2 24 1 25 3 26 4 27 5 28 32 29 22 30 24 32 7 34
REMARK SMILES IDX 8 35 9 36 35 38
REMARK H PARENT 22 31 24 33 9 37 35 39
ROOT
ATOM      1  C   UNL     1      84.459  56.767  43.423  1.00  0.00     0.144 C 
ATOM      2  C   UNL     1      84.232  55.265  43.262  1.00  0.00     0.042 C 
ATOM      3  C   UNL     1      85.480  54.394  43.592  1.00  0.00    -0.023 C 
ATOM      4  C   UNL     1      86.519  54.611  42.461  1.00  0.00     0.012 C 
ATOM      5  C   UNL     1      86.017  54.815  45.012  1.00  0.00     0.004 C 
ATOM      6  C   UNL     1      86.264  56.355  45.228  1.00  0.00    -0.003 C 
ATOM      7  C   UNL     1      84.973  57.119  44.824  1.00  0.00     0.149 C 
ATOM      8  C   UNL     1      87.498  56.903  44.484  1.00  0.00     0.014 C 
ATOM      9  C   UNL     1      86.512  56.642  46.735  1.00  0.00     0.014 C 
ATOM     10  C   UNL     1      87.178  53.902  45.456  1.00  0.00     0.005 C 
ATOM     11  C   UNL     1      86.731  52.441  45.564  1.00  0.00     0.008 C 
ATOM     12  C   UNL     1      86.066  51.855  44.285  1.00  0.00    -0.020 C 
ATOM     13  C   UNL     1      85.017  52.876  43.704  1.00  0.00     0.006 C 
ATOM     14  C   UNL     1      84.317  52.320  42.439  1.00  0.00     0.032 C 
ATOM     15  C   UNL     1      84.193  50.824  42.371  1.00  0.00    -0.026 C 
ATOM     16  C   UNL     1      84.630  49.948  43.302  1.00  0.00    -0.061 C 
ATOM     17  C   UNL     1      85.278  50.461  44.605  1.00  0.00    -0.006 C 
ATOM     18  C   UNL     1      84.110  50.684  45.621  1.00  0.00     0.017 C 
ATOM     19  C   UNL     1      86.229  49.430  45.280  1.00  0.00     0.013 C 
ATOM     20  C   UNL     1      85.802  47.968  45.130  1.00  0.00     0.020 C 
ATOM     21  C   UNL     1      85.626  47.576  43.650  1.00  0.00     0.077 C 
ATOM     22  C   UNL     1      84.504  48.440  43.002  1.00  0.00     0.062 C 
ATOM     23  C   UNL     1      83.054  47.912  43.230  1.00  0.00     0.128 C 
ATOM     24  C   UNL     1      82.893  46.395  42.952  1.00  0.00    -0.009 C 
ATOM     25  C   UNL     1      83.063  46.094  41.447  1.00  0.00     0.014 C 
ATOM     26  C   UNL     1      81.479  45.919  43.356  1.00  0.00     0.014 C 
ATOM     27  C   UNL     1      83.924  45.621  43.793  1.00  0.00     0.010 C 
ATOM     28  C   UNL     1      85.358  46.054  43.516  1.00  0.00     0.020 C 
ATOM     29  C   UNL     1      87.215  51.596  43.259  1.00  0.00     0.012 C 
ENDROOT
BRANCH   1  30
ATOM     30  O   UNL     1      83.214  57.457  43.228  1.00  0.00    -0.390 OA
ATOM     31  H   UNL     1      82.867  57.184  42.360  1.00  0.00     0.211 HD
ENDBRANCH   1  30
BRANCH   7  32
ATOM     32  O   UNL     1      85.171  58.537  44.887  1.00  0.00    -0.390 OA
ATOM     33  H   UNL     1      84.290  58.901  45.107  1.00  0.00     0.211 HD
ENDBRANCH   7  32
BRANCH  21  34
ATOM     34  C   UNL     1      86.937  47.795  42.879  1.00  0.00     0.310 C 
ATOM     35  O   UNL     1      88.040  48.034  43.345  1.00  0.00    -0.252 OA
BRANCH  34  36
ATOM     36  O   UNL     1      86.782  47.781  41.538  1.00  0.00    -0.481 OA
ATOM     37  H   UNL     1      87.640  48.112  41.200  1.00  0.00     0.296 HD
ENDBRANCH  34  36
ENDBRANCH  21  34
BRANCH  23  38
ATOM     38  O   UNL     1      82.622  48.165  44.566  1.00  0.00    -0.392 OA
ATOM     39  H   UNL     1      81.774  48.635  44.493  1.00  0.00     0.211 HD
ENDBRANCH  23  38
TORSDOF 5
ENDMDL
