MODEL 1
REMARK VINA RESULT:    -7.475      0.000      0.000
REMARK INTER + INTRA:          -8.304
REMARK INTER:                  -7.868
REMARK INTRA:                  -0.436
REMARK UNBOUND:                 0.044
REMARK SMILES CC(=O)OC1CCC2(C)C(CCC3(C)C2CC=C2C4CC(C)(C)CCC4(C)CCC23C)C1(C)C
REMARK SMILES IDX 4 1 2 2 3 3 1 4 5 5 6 6 32 7 7 8 10 9 8 10 11 11 15 12 12 13
REMARK SMILES IDX 13 14 16 15 30 16 17 17 18 18 29 19 19 20 28 21 26 22 20 23
REMARK SMILES IDX 25 24 21 25 24 26 33 27 34 28 9 29 14 30 31 31 27 32 22 33
REMARK SMILES IDX 23 34
REMARK H PARENT
ROOT
ATOM      1  O   UNL     1      84.944  55.885  46.599  1.00  0.00    -0.462 OA
ENDROOT
BRANCH   1   2
ATOM      2  C   UNL     1      84.115  56.960  46.492  1.00  0.00     0.302 C 
ATOM      3  O   UNL     1      82.931  56.988  46.791  1.00  0.00    -0.253 OA
ATOM      4  C   UNL     1      84.873  58.129  45.940  1.00  0.00     0.139 C 
ENDBRANCH   1   2
BRANCH   1   5
ATOM      5  C   UNL     1      84.912  54.911  45.530  1.00  0.00     0.182 C 
ATOM      6  C   UNL     1      84.248  53.655  46.101  1.00  0.00     0.046 C 
ATOM      7  C   UNL     1      86.353  54.616  44.982  1.00  0.00     0.005 C 
ATOM      8  C   UNL     1      84.104  52.493  45.103  1.00  0.00     0.011 C 
ATOM      9  C   UNL     1      86.460  53.111  44.528  1.00  0.00     0.005 C 
ATOM     10  C   UNL     1      85.154  52.478  43.954  1.00  0.00    -0.025 C 
ATOM     11  C   UNL     1      87.659  52.750  43.653  1.00  0.00     0.005 C 
ATOM     12  C   UNL     1      85.445  51.033  43.335  1.00  0.00     0.006 C 
ATOM     13  C   UNL     1      87.980  51.256  43.781  1.00  0.00     0.008 C 
ATOM     14  C   UNL     1      86.744  50.289  43.803  1.00  0.00    -0.020 C 
ATOM     15  C   UNL     1      84.228  50.088  43.357  1.00  0.00     0.032 C 
ATOM     16  C   UNL     1      86.994  49.001  42.828  1.00  0.00    -0.006 C 
ATOM     17  C   UNL     1      84.508  48.696  42.877  1.00  0.00    -0.027 C 
ATOM     18  C   UNL     1      85.718  48.144  42.653  1.00  0.00    -0.064 C 
ATOM     19  C   UNL     1      88.139  48.131  43.410  1.00  0.00     0.012 C 
ATOM     20  C   UNL     1      85.885  46.707  42.087  1.00  0.00     0.022 C 
ATOM     21  C   UNL     1      88.390  46.842  42.639  1.00  0.00     0.008 C 
ATOM     22  C   UNL     1      87.146  45.925  42.598  1.00  0.00    -0.026 C 
ATOM     23  C   UNL     1      84.636  45.779  42.189  1.00  0.00     0.015 C 
ATOM     24  C   UNL     1      86.916  45.273  43.994  1.00  0.00     0.008 C 
ATOM     25  C   UNL     1      84.386  45.149  43.588  1.00  0.00    -0.035 C 
ATOM     26  C   UNL     1      85.521  45.489  44.575  1.00  0.00     0.007 C 
ATOM     27  C   UNL     1      87.410  54.854  46.098  1.00  0.00     0.015 C 
ATOM     28  C   UNL     1      86.692  55.614  43.854  1.00  0.00     0.015 C 
ATOM     29  C   UNL     1      84.560  53.289  42.761  1.00  0.00     0.012 C 
ATOM     30  C   UNL     1      86.548  49.808  45.278  1.00  0.00     0.012 C 
ATOM     31  C   UNL     1      87.401  49.443  41.385  1.00  0.00     0.017 C 
ATOM     32  C   UNL     1      87.508  44.792  41.598  1.00  0.00     0.012 C 
ATOM     33  C   UNL     1      83.053  45.646  44.184  1.00  0.00     0.011 C 
ATOM     34  C   UNL     1      84.259  43.616  43.442  1.00  0.00     0.011 C 
ENDBRANCH   1   5
TORSDOF 2
ENDMDL
MODEL 2
REMARK VINA RESULT:    -7.111      1.752      2.549
REMARK INTER + INTRA:          -7.899
REMARK INTER:                  -8.077
REMARK INTRA:                   0.179
REMARK UNBOUND:                 0.044
REMARK SMILES CC(=O)OC1CCC2(C)C(CCC3(C)C2CC=C2C4CC(C)(C)CCC4(C)CCC23C)C1(C)C
REMARK SMILES IDX 4 1 2 2 3 3 1 4 5 5 6 6 32 7 7 8 10 9 8 10 11 11 15 12 12 13
REMARK SMILES IDX 13 14 16 15 30 16 17 17 18 18 29 19 19 20 28 21 26 22 20 23
REMARK SMILES IDX 25 24 21 25 24 26 33 27 34 28 9 29 14 30 31 31 27 32 22 33
REMARK SMILES IDX 23 34
REMARK H PARENT
ROOT
ATOM      1  O   UNL     1      84.200  54.935  46.592  1.00  0.00    -0.462 OA
ENDROOT
BRANCH   1   2
ATOM      2  C   UNL     1      83.743  54.390  47.752  1.00  0.00     0.302 C 
ATOM      3  O   UNL     1      82.593  54.050  47.984  1.00  0.00    -0.253 OA
ATOM      4  C   UNL     1      84.872  54.266  48.730  1.00  0.00     0.139 C 
ENDBRANCH   1   2
BRANCH   1   5
ATOM      5  C   UNL     1      84.437  54.037  45.482  1.00  0.00     0.182 C 
ATOM      6  C   UNL     1      84.567  52.631  46.076  1.00  0.00     0.046 C 
ATOM      7  C   UNL     1      85.715  54.454  44.672  1.00  0.00     0.005 C 
ATOM      8  C   UNL     1      84.809  51.517  45.043  1.00  0.00     0.011 C 
ATOM      9  C   UNL     1      86.437  53.173  44.107  1.00  0.00     0.005 C 
ATOM     10  C   UNL     1      85.507  51.977  43.729  1.00  0.00    -0.025 C 
ATOM     11  C   UNL     1      87.477  53.407  43.014  1.00  0.00     0.005 C 
ATOM     12  C   UNL     1      86.329  50.832  42.975  1.00  0.00     0.006 C 
ATOM     13  C   UNL     1      88.487  52.253  42.984  1.00  0.00     0.008 C 
ATOM     14  C   UNL     1      87.886  50.813  43.157  1.00  0.00    -0.020 C 
ATOM     15  C   UNL     1      85.733  49.421  43.145  1.00  0.00     0.032 C 
ATOM     16  C   UNL     1      88.531  49.777  42.070  1.00  0.00    -0.006 C 
ATOM     17  C   UNL     1      86.546  48.321  42.533  1.00  0.00    -0.027 C 
ATOM     18  C   UNL     1      87.808  48.410  42.064  1.00  0.00    -0.064 C 
ATOM     19  C   UNL     1      90.038  49.577  42.383  1.00  0.00     0.012 C 
ATOM     20  C   UNL     1      88.528  47.214  41.383  1.00  0.00     0.022 C 
ATOM     21  C   UNL     1      90.722  48.545  41.496  1.00  0.00     0.008 C 
ATOM     22  C   UNL     1      90.079  47.144  41.612  1.00  0.00    -0.026 C 
ATOM     23  C   UNL     1      87.913  45.805  41.639  1.00  0.00     0.015 C 
ATOM     24  C   UNL     1      90.449  46.497  42.980  1.00  0.00     0.008 C 
ATOM     25  C   UNL     1      88.256  45.168  43.016  1.00  0.00    -0.035 C 
ATOM     26  C   UNL     1      89.254  46.034  43.809  1.00  0.00     0.007 C 
ATOM     27  C   UNL     1      86.718  55.197  45.599  1.00  0.00     0.015 C 
ATOM     28  C   UNL     1      85.324  55.463  43.571  1.00  0.00     0.015 C 
ATOM     29  C   UNL     1      84.390  52.374  42.716  1.00  0.00     0.012 C 
ATOM     30  C   UNL     1      88.219  50.335  44.608  1.00  0.00     0.012 C 
ATOM     31  C   UNL     1      88.405  50.323  40.611  1.00  0.00     0.017 C 
ATOM     32  C   UNL     1      90.743  46.297  40.491  1.00  0.00     0.012 C 
ATOM     33  C   UNL     1      86.984  44.982  43.867  1.00  0.00     0.011 C 
ATOM     34  C   UNL     1      88.847  43.757  42.792  1.00  0.00     0.011 C 
ENDBRANCH   1   5
TORSDOF 2
ENDMDL
MODEL 3
REMARK VINA RESULT:    -7.037      3.197      8.789
REMARK INTER + INTRA:          -7.816
REMARK INTER:                  -7.456
REMARK INTRA:                  -0.360
REMARK UNBOUND:                 0.044
REMARK SMILES CC(=O)OC1CCC2(C)C(CCC3(C)C2CC=C2C4CC(C)(C)CCC4(C)CCC23C)C1(C)C
REMARK SMILES IDX 4 1 2 2 3 3 1 4 5 5 6 6 32 7 7 8 10 9 8 10 11 11 15 12 12 13
REMARK SMILES IDX 13 14 16 15 30 16 17 17 18 18 29 19 19 20 28 21 26 22 20 23
REMARK SMILES IDX 25 24 21 25 24 26 33 27 34 28 9 29 14 30 31 31 27 32 22 33
REMARK SMILES IDX 23 34
REMARK H PARENT
ROOT
ATOM      1  O   UNL     1      85.990  45.482  43.677  1.00  0.00    -0.462 OA
ENDROOT
BRANCH   1   2
ATOM      2  C   UNL     1      86.815  44.400  43.631  1.00  0.00     0.302 C 
ATOM      3  O   UNL     1      87.538  44.008  44.534  1.00  0.00    -0.253 OA
ATOM      4  C   UNL     1      86.715  43.746  42.287  1.00  0.00     0.139 C 
ENDBRANCH   1   2
BRANCH   1   5
ATOM      5  C   UNL     1      86.601  46.778  43.880  1.00  0.00     0.182 C 
ATOM      6  C   UNL     1      85.746  47.507  44.921  1.00  0.00     0.046 C 
ATOM      7  C   UNL     1      86.702  47.581  42.536  1.00  0.00     0.005 C 
ATOM      8  C   UNL     1      86.246  48.914  45.292  1.00  0.00     0.011 C 
ATOM      9  C   UNL     1      86.530  49.122  42.814  1.00  0.00     0.005 C 
ATOM     10  C   UNL     1      87.073  49.632  44.185  1.00  0.00    -0.025 C 
ATOM     11  C   UNL     1      86.951  50.065  41.689  1.00  0.00     0.005 C 
ATOM     12  C   UNL     1      87.036  51.228  44.255  1.00  0.00     0.006 C 
ATOM     13  C   UNL     1      86.213  51.403  41.813  1.00  0.00     0.008 C 
ATOM     14  C   UNL     1      86.077  51.978  43.267  1.00  0.00    -0.020 C 
ATOM     15  C   UNL     1      86.905  51.787  45.685  1.00  0.00     0.032 C 
ATOM     16  C   UNL     1      86.430  53.574  43.299  1.00  0.00    -0.006 C 
ATOM     17  C   UNL     1      86.764  53.278  45.764  1.00  0.00    -0.027 C 
ATOM     18  C   UNL     1      86.521  54.123  44.742  1.00  0.00    -0.064 C 
ATOM     19  C   UNL     1      85.350  54.354  42.503  1.00  0.00     0.012 C 
ATOM     20  C   UNL     1      86.464  55.664  44.933  1.00  0.00     0.022 C 
ATOM     21  C   UNL     1      85.518  55.867  42.554  1.00  0.00     0.008 C 
ATOM     22  C   UNL     1      85.459  56.422  43.995  1.00  0.00    -0.026 C 
ATOM     23  C   UNL     1      86.273  56.169  46.396  1.00  0.00     0.015 C 
ATOM     24  C   UNL     1      83.996  56.372  44.529  1.00  0.00     0.008 C 
ATOM     25  C   UNL     1      84.819  56.094  46.942  1.00  0.00    -0.035 C 
ATOM     26  C   UNL     1      83.827  55.635  45.855  1.00  0.00     0.007 C 
ATOM     27  C   UNL     1      85.570  47.142  41.564  1.00  0.00     0.015 C 
ATOM     28  C   UNL     1      88.030  47.238  41.827  1.00  0.00     0.015 C 
ATOM     29  C   UNL     1      88.574  49.276  44.414  1.00  0.00     0.012 C 
ATOM     30  C   UNL     1      84.600  51.752  43.727  1.00  0.00     0.012 C 
ATOM     31  C   UNL     1      87.822  53.867  42.651  1.00  0.00     0.017 C 
ATOM     32  C   UNL     1      85.870  57.916  43.875  1.00  0.00     0.012 C 
ATOM     33  C   UNL     1      84.729  55.116  48.131  1.00  0.00     0.011 C 
ATOM     34  C   UNL     1      84.405  57.482  47.480  1.00  0.00     0.011 C 
ENDBRANCH   1   5
TORSDOF 2
ENDMDL
MODEL 4
REMARK VINA RESULT:    -5.740      3.671      8.913
REMARK INTER + INTRA:          -6.367
REMARK INTER:                  -6.992
REMARK INTRA:                   0.624
REMARK UNBOUND:                 0.044
REMARK SMILES CC(=O)OC1CCC2(C)C(CCC3(C)C2CC=C2C4CC(C)(C)CCC4(C)CCC23C)C1(C)C
REMARK SMILES IDX 4 1 2 2 3 3 1 4 5 5 6 6 32 7 7 8 10 9 8 10 11 11 15 12 12 13
REMARK SMILES IDX 13 14 16 15 30 16 17 17 18 18 29 19 19 20 28 21 26 22 20 23
REMARK SMILES IDX 25 24 21 25 24 26 33 27 34 28 9 29 14 30 31 31 27 32 22 33
REMARK SMILES IDX 23 34
REMARK H PARENT
ROOT
ATOM      1  O   UNL     1      90.849  48.658  41.651  1.00  0.00    -0.462 OA
ENDROOT
BRANCH   1   2
ATOM      2  C   UNL     1      90.866  47.508  40.922  1.00  0.00     0.302 C 
ATOM      3  O   UNL     1      90.866  47.428  39.703  1.00  0.00    -0.253 OA
ATOM      4  C   UNL     1      90.880  46.327  41.844  1.00  0.00     0.139 C 
ENDBRANCH   1   2
BRANCH   1   5
ATOM      5  C   UNL     1      89.597  49.380  41.727  1.00  0.00     0.182 C 
ATOM      6  C   UNL     1      89.952  50.844  42.004  1.00  0.00     0.046 C 
ATOM      7  C   UNL     1      88.658  48.782  42.833  1.00  0.00     0.005 C 
ATOM      8  C   UNL     1      88.743  51.790  42.106  1.00  0.00     0.011 C 
ATOM      9  C   UNL     1      87.803  49.929  43.492  1.00  0.00     0.005 C 
ATOM     10  C   UNL     1      87.414  51.114  42.554  1.00  0.00    -0.025 C 
ATOM     11  C   UNL     1      86.600  49.487  44.322  1.00  0.00     0.005 C 
ATOM     12  C   UNL     1      86.377  52.095  43.274  1.00  0.00     0.006 C 
ATOM     13  C   UNL     1      86.239  50.566  45.351  1.00  0.00     0.008 C 
ATOM     14  C   UNL     1      86.298  52.048  44.840  1.00  0.00    -0.020 C 
ATOM     15  C   UNL     1      86.437  53.548  42.766  1.00  0.00     0.032 C 
ATOM     16  C   UNL     1      84.981  52.886  45.326  1.00  0.00    -0.006 C 
ATOM     17  C   UNL     1      85.547  54.505  43.500  1.00  0.00    -0.027 C 
ATOM     18  C   UNL     1      84.896  54.280  44.659  1.00  0.00    -0.064 C 
ATOM     19  C   UNL     1      85.011  53.039  46.870  1.00  0.00     0.012 C 
ATOM     20  C   UNL     1      83.940  55.326  45.295  1.00  0.00     0.022 C 
ATOM     21  C   UNL     1      83.884  53.898  47.428  1.00  0.00     0.008 C 
ATOM     22  C   UNL     1      83.900  55.337  46.864  1.00  0.00    -0.026 C 
ATOM     23  C   UNL     1      84.087  56.791  44.781  1.00  0.00     0.015 C 
ATOM     24  C   UNL     1      85.081  56.142  47.483  1.00  0.00     0.008 C 
ATOM     25  C   UNL     1      85.282  57.590  45.375  1.00  0.00    -0.035 C 
ATOM     26  C   UNL     1      86.018  56.783  46.463  1.00  0.00     0.007 C 
ATOM     27  C   UNL     1      89.506  48.116  43.953  1.00  0.00     0.015 C 
ATOM     28  C   UNL     1      87.794  47.656  42.225  1.00  0.00     0.015 C 
ATOM     29  C   UNL     1      86.665  50.648  41.267  1.00  0.00     0.012 C 
ATOM     30  C   UNL     1      87.590  52.700  45.431  1.00  0.00     0.012 C 
ATOM     31  C   UNL     1      83.657  52.154  44.934  1.00  0.00     0.017 C 
ATOM     32  C   UNL     1      82.575  55.982  47.356  1.00  0.00     0.012 C 
ATOM     33  C   UNL     1      86.294  57.964  44.274  1.00  0.00     0.011 C 
ATOM     34  C   UNL     1      84.763  58.919  45.968  1.00  0.00     0.011 C 
ENDBRANCH   1   5
TORSDOF 2
ENDMDL
MODEL 5
REMARK VINA RESULT:    -5.331      1.699      3.925
REMARK INTER + INTRA:          -5.910
REMARK INTER:                  -5.499
REMARK INTRA:                  -0.411
REMARK UNBOUND:                 0.044
REMARK SMILES CC(=O)OC1CCC2(C)C(CCC3(C)C2CC=C2C4CC(C)(C)CCC4(C)CCC23C)C1(C)C
REMARK SMILES IDX 4 1 2 2 3 3 1 4 5 5 6 6 32 7 7 8 10 9 8 10 11 11 15 12 12 13
REMARK SMILES IDX 13 14 16 15 30 16 17 17 18 18 29 19 19 20 28 21 26 22 20 23
REMARK SMILES IDX 25 24 21 25 24 26 33 27 34 28 9 29 14 30 31 31 27 32 22 33
REMARK SMILES IDX 23 34
REMARK H PARENT
ROOT
ATOM      1  O   UNL     1      85.229  57.506  43.943  1.00  0.00    -0.462 OA
ENDROOT
BRANCH   1   2
ATOM      2  C   UNL     1      85.654  58.625  44.591  1.00  0.00     0.302 C 
ATOM      3  O   UNL     1      86.585  59.341  44.256  1.00  0.00    -0.253 OA
ATOM      4  C   UNL     1      84.805  58.860  45.803  1.00  0.00     0.139 C 
ENDBRANCH   1   2
BRANCH   1   5
ATOM      5  C   UNL     1      85.679  56.229  44.455  1.00  0.00     0.182 C 
ATOM      6  C   UNL     1      86.749  55.720  43.485  1.00  0.00     0.046 C 
ATOM      7  C   UNL     1      84.487  55.219  44.599  1.00  0.00     0.005 C 
ATOM      8  C   UNL     1      87.370  54.365  43.867  1.00  0.00     0.011 C 
ATOM      9  C   UNL     1      84.984  53.752  44.311  1.00  0.00     0.005 C 
ATOM     10  C   UNL     1      86.457  53.439  44.722  1.00  0.00    -0.025 C 
ATOM     11  C   UNL     1      84.055  52.622  44.749  1.00  0.00     0.005 C 
ATOM     12  C   UNL     1      86.769  51.878  44.579  1.00  0.00     0.006 C 
ATOM     13  C   UNL     1      84.325  51.360  43.920  1.00  0.00     0.008 C 
ATOM     14  C   UNL     1      85.835  51.031  43.646  1.00  0.00    -0.020 C 
ATOM     15  C   UNL     1      88.253  51.560  44.314  1.00  0.00     0.032 C 
ATOM     16  C   UNL     1      86.141  49.445  43.894  1.00  0.00    -0.006 C 
ATOM     17  C   UNL     1      88.550  50.111  44.073  1.00  0.00    -0.027 C 
ATOM     18  C   UNL     1      87.655  49.127  43.849  1.00  0.00    -0.064 C 
ATOM     19  C   UNL     1      85.392  48.605  42.826  1.00  0.00     0.012 C 
ATOM     20  C   UNL     1      88.076  47.641  43.682  1.00  0.00     0.022 C 
ATOM     21  C   UNL     1      85.689  47.113  42.893  1.00  0.00     0.008 C 
ATOM     22  C   UNL     1      87.190  46.797  42.698  1.00  0.00    -0.026 C 
ATOM     23  C   UNL     1      89.579  47.386  43.357  1.00  0.00     0.015 C 
ATOM     24  C   UNL     1      87.592  47.007  41.208  1.00  0.00     0.008 C 
ATOM     25  C   UNL     1      89.991  47.622  41.876  1.00  0.00    -0.035 C 
ATOM     26  C   UNL     1      88.771  47.952  40.994  1.00  0.00     0.007 C 
ATOM     27  C   UNL     1      83.372  55.556  43.568  1.00  0.00     0.015 C 
ATOM     28  C   UNL     1      83.840  55.376  45.992  1.00  0.00     0.015 C 
ATOM     29  C   UNL     1      86.746  53.749  46.224  1.00  0.00     0.012 C 
ATOM     30  C   UNL     1      86.137  51.404  42.158  1.00  0.00     0.012 C 
ATOM     31  C   UNL     1      85.659  48.981  45.307  1.00  0.00     0.017 C 
ATOM     32  C   UNL     1      87.334  45.284  43.021  1.00  0.00     0.012 C 
ATOM     33  C   UNL     1      91.004  48.779  41.765  1.00  0.00     0.011 C 
ATOM     34  C   UNL     1      90.702  46.360  41.337  1.00  0.00     0.011 C 
ENDBRANCH   1   5
TORSDOF 2
ENDMDL
