MODEL 1
REMARK VINA RESULT:    -8.310      0.000      0.000
REMARK INTER + INTRA:          -9.629
REMARK INTER:                  -9.329
REMARK INTRA:                  -0.300
REMARK UNBOUND:                -0.347
REMARK SMILES Cc1c(O)c(C)c2c(c1O)C(=O)C[C@@H](c1ccccc1)O2
REMARK SMILES IDX 6 1 5 2 7 3 21 4 14 5 13 6 11 7 12 8 8 9 9 10 2 11 3 12 1 13
REMARK SMILES IDX 4 14 15 16 16 17 20 18 17 19 19 20 18 21 10 22
REMARK H PARENT 4 15 10 23
ROOT
ATOM      1  C   UNL     1      84.776  50.545  43.627  1.00  0.00     0.052 C 
ATOM      2  C   UNL     1      85.093  51.435  42.454  1.00  0.00     0.034 A 
ATOM      3  C   UNL     1      86.333  51.350  41.804  1.00  0.00     0.141 A 
ATOM      4  O   UNL     1      87.226  50.417  42.269  1.00  0.00    -0.484 OA
ATOM      5  C   UNL     1      88.172  49.991  41.277  1.00  0.00     0.211 C 
ATOM      6  C   UNL     1      88.959  51.181  40.753  1.00  0.00     0.131 C 
ATOM      7  C   UNL     1      87.983  52.146  40.147  1.00  0.00     0.174 C 
ATOM      8  O   UNL     1      88.281  52.893  39.217  1.00  0.00    -0.294 OA
ATOM      9  C   UNL     1      86.638  52.221  40.754  1.00  0.00     0.102 A 
ATOM     10  C   UNL     1      85.695  53.166  40.321  1.00  0.00     0.136 A 
ATOM     11  C   UNL     1      84.440  53.263  40.940  1.00  0.00     0.034 A 
ATOM     12  C   UNL     1      84.172  52.408  42.026  1.00  0.00     0.128 A 
ATOM     13  C   UNL     1      83.435  54.282  40.475  1.00  0.00     0.052 C 
ENDROOT
BRANCH  12  14
ATOM     14  O   UNL     1      82.993  52.490  42.723  1.00  0.00    -0.507 OA
ATOM     15  H   UNL     1      82.887  51.712  43.291  1.00  0.00     0.293 HD
ENDBRANCH  12  14
BRANCH   5  16
ATOM     16  C   UNL     1      89.106  48.964  41.890  1.00  0.00    -0.007 A 
ATOM     17  C   UNL     1      88.842  47.594  41.731  1.00  0.00     0.007 A 
ATOM     18  C   UNL     1      90.260  49.350  42.589  1.00  0.00     0.007 A 
ATOM     19  C   UNL     1      89.707  46.638  42.267  1.00  0.00     0.000 A 
ATOM     20  C   UNL     1      91.122  48.392  43.125  1.00  0.00     0.000 A 
ATOM     21  C   UNL     1      90.845  47.036  42.965  1.00  0.00     0.000 A 
ENDBRANCH   5  16
BRANCH  10  22
ATOM     22  O   UNL     1      85.970  54.034  39.294  1.00  0.00    -0.507 OA
ATOM     23  H   UNL     1      86.870  54.409  39.430  1.00  0.00     0.293 HD
ENDBRANCH  10  22
TORSDOF 3
ENDMDL
MODEL 2
REMARK VINA RESULT:    -8.281      2.856      3.243
REMARK INTER + INTRA:          -9.597
REMARK INTER:                  -9.285
REMARK INTRA:                  -0.312
REMARK UNBOUND:                -0.347
REMARK SMILES Cc1c(O)c(C)c2c(c1O)C(=O)C[C@@H](c1ccccc1)O2
REMARK SMILES IDX 6 1 5 2 7 3 21 4 14 5 13 6 11 7 12 8 8 9 9 10 2 11 3 12 1 13
REMARK SMILES IDX 4 14 15 16 16 17 20 18 17 19 19 20 18 21 10 22
REMARK H PARENT 4 15 10 23
ROOT
ATOM      1  C   UNL     1      87.354  51.040  46.869  1.00  0.00     0.052 C 
ATOM      2  C   UNL     1      87.062  52.031  45.772  1.00  0.00     0.034 A 
ATOM      3  C   UNL     1      87.518  51.808  44.465  1.00  0.00     0.141 A 
ATOM      4  O   UNL     1      88.219  50.651  44.229  1.00  0.00    -0.484 OA
ATOM      5  C   UNL     1      88.155  50.215  42.864  1.00  0.00     0.211 C 
ATOM      6  C   UNL     1      88.696  51.293  41.939  1.00  0.00     0.131 C 
ATOM      7  C   UNL     1      87.853  52.521  42.123  1.00  0.00     0.174 C 
ATOM      8  O   UNL     1      87.666  53.337  41.222  1.00  0.00    -0.294 OA
ATOM      9  C   UNL     1      87.291  52.762  43.469  1.00  0.00     0.102 A 
ATOM     10  C   UNL     1      86.578  53.935  43.761  1.00  0.00     0.136 A 
ATOM     11  C   UNL     1      86.095  54.177  45.055  1.00  0.00     0.034 A 
ATOM     12  C   UNL     1      86.375  53.226  46.053  1.00  0.00     0.128 A 
ATOM     13  C   UNL     1      85.335  55.439  45.363  1.00  0.00     0.052 C 
ENDROOT
BRANCH  12  14
ATOM     14  O   UNL     1      85.992  53.425  47.355  1.00  0.00    -0.507 OA
ATOM     15  H   UNL     1      85.365  54.162  47.408  1.00  0.00     0.293 HD
ENDBRANCH  12  14
BRANCH   5  16
ATOM     16  C   UNL     1      88.955  48.935  42.713  1.00  0.00    -0.007 A 
ATOM     17  C   UNL     1      90.242  48.843  43.267  1.00  0.00     0.007 A 
ATOM     18  C   UNL     1      88.424  47.813  42.058  1.00  0.00     0.007 A 
ATOM     19  C   UNL     1      90.980  47.663  43.159  1.00  0.00     0.000 A 
ATOM     20  C   UNL     1      89.165  46.634  41.949  1.00  0.00     0.000 A 
ATOM     21  C   UNL     1      90.442  46.560  42.500  1.00  0.00     0.000 A 
ENDBRANCH   5  16
BRANCH  10  22
ATOM     22  O   UNL     1      86.343  54.888  42.801  1.00  0.00    -0.507 OA
ATOM     23  H   UNL     1      87.089  55.531  42.806  1.00  0.00     0.293 HD
ENDBRANCH  10  22
TORSDOF 3
ENDMDL
MODEL 3
REMARK VINA RESULT:    -8.170      3.988      7.640
REMARK INTER + INTRA:          -9.472
REMARK INTER:                  -9.127
REMARK INTRA:                  -0.346
REMARK UNBOUND:                -0.347
REMARK SMILES Cc1c(O)c(C)c2c(c1O)C(=O)C[C@@H](c1ccccc1)O2
REMARK SMILES IDX 6 1 5 2 7 3 21 4 14 5 13 6 11 7 12 8 8 9 9 10 2 11 3 12 1 13
REMARK SMILES IDX 4 14 15 16 16 17 20 18 17 19 19 20 18 21 10 22
REMARK H PARENT 4 15 10 23
ROOT
ATOM      1  C   UNL     1      86.388  50.073  43.617  1.00  0.00     0.052 C 
ATOM      2  C   UNL     1      86.826  48.724  43.108  1.00  0.00     0.034 A 
ATOM      3  C   UNL     1      85.949  47.630  43.130  1.00  0.00     0.141 A 
ATOM      4  O   UNL     1      84.683  47.846  43.614  1.00  0.00    -0.484 OA
ATOM      5  C   UNL     1      83.713  46.919  43.104  1.00  0.00     0.211 C 
ATOM      6  C   UNL     1      84.114  45.493  43.447  1.00  0.00     0.131 C 
ATOM      7  C   UNL     1      85.452  45.230  42.820  1.00  0.00     0.174 C 
ATOM      8  O   UNL     1      85.802  44.109  42.453  1.00  0.00    -0.294 OA
ATOM      9  C   UNL     1      86.386  46.370  42.710  1.00  0.00     0.102 A 
ATOM     10  C   UNL     1      87.694  46.197  42.233  1.00  0.00     0.136 A 
ATOM     11  C   UNL     1      88.588  47.276  42.183  1.00  0.00     0.034 A 
ATOM     12  C   UNL     1      88.143  48.524  42.655  1.00  0.00     0.128 A 
ATOM     13  C   UNL     1      89.992  47.083  41.675  1.00  0.00     0.052 C 
ENDROOT
BRANCH  12  14
ATOM     14  O   UNL     1      88.981  49.610  42.698  1.00  0.00    -0.507 OA
ATOM     15  H   UNL     1      89.470  49.686  41.865  1.00  0.00     0.293 HD
ENDBRANCH  12  14
BRANCH   5  16
ATOM     16  C   UNL     1      82.355  47.246  43.696  1.00  0.00    -0.007 A 
ATOM     17  C   UNL     1      81.601  46.238  44.320  1.00  0.00     0.007 A 
ATOM     18  C   UNL     1      81.839  48.551  43.668  1.00  0.00     0.007 A 
ATOM     19  C   UNL     1      80.361  46.530  44.891  1.00  0.00     0.000 A 
ATOM     20  C   UNL     1      80.598  48.840  44.239  1.00  0.00     0.000 A 
ATOM     21  C   UNL     1      79.860  47.829  44.850  1.00  0.00     0.000 A 
ENDBRANCH   5  16
BRANCH  10  22
ATOM     22  O   UNL     1      88.148  44.970  41.816  1.00  0.00    -0.507 OA
ATOM     23  H   UNL     1      87.580  44.271  42.215  1.00  0.00     0.293 HD
ENDBRANCH  10  22
TORSDOF 3
ENDMDL
MODEL 4
REMARK VINA RESULT:    -8.144      3.294      3.849
REMARK INTER + INTRA:          -9.443
REMARK INTER:                  -9.145
REMARK INTRA:                  -0.298
REMARK UNBOUND:                -0.347
REMARK SMILES Cc1c(O)c(C)c2c(c1O)C(=O)C[C@@H](c1ccccc1)O2
REMARK SMILES IDX 6 1 5 2 7 3 21 4 14 5 13 6 11 7 12 8 8 9 9 10 2 11 3 12 1 13
REMARK SMILES IDX 4 14 15 16 16 17 20 18 17 19 19 20 18 21 10 22
REMARK H PARENT 4 15 10 23
ROOT
ATOM      1  C   UNL     1      87.282  50.538  47.317  1.00  0.00     0.052 C 
ATOM      2  C   UNL     1      86.795  51.717  46.516  1.00  0.00     0.034 A 
ATOM      3  C   UNL     1      87.134  51.852  45.162  1.00  0.00     0.141 A 
ATOM      4  O   UNL     1      87.904  50.864  44.602  1.00  0.00    -0.484 OA
ATOM      5  C   UNL     1      87.740  50.750  43.181  1.00  0.00     0.211 C 
ATOM      6  C   UNL     1      88.088  52.064  42.502  1.00  0.00     0.131 C 
ATOM      7  C   UNL     1      87.166  53.118  43.040  1.00  0.00     0.174 C 
ATOM      8  O   UNL     1      86.818  54.095  42.378  1.00  0.00    -0.294 OA
ATOM      9  C   UNL     1      86.725  52.980  44.444  1.00  0.00     0.102 A 
ATOM     10  C   UNL     1      85.946  53.969  45.063  1.00  0.00     0.136 A 
ATOM     11  C   UNL     1      85.577  53.853  46.411  1.00  0.00     0.034 A 
ATOM     12  C   UNL     1      86.040  52.733  47.128  1.00  0.00     0.128 A 
ATOM     13  C   UNL     1      84.747  54.921  47.072  1.00  0.00     0.052 C 
ENDROOT
BRANCH  12  14
ATOM     14  O   UNL     1      85.775  52.585  48.466  1.00  0.00    -0.507 OA
ATOM     15  H   UNL     1      86.413  53.093  48.989  1.00  0.00     0.293 HD
ENDBRANCH  12  14
BRANCH   5  16
ATOM     16  C   UNL     1      88.628  49.633  42.666  1.00  0.00    -0.007 A 
ATOM     17  C   UNL     1      88.084  48.364  42.413  1.00  0.00     0.007 A 
ATOM     18  C   UNL     1      89.990  49.847  42.397  1.00  0.00     0.007 A 
ATOM     19  C   UNL     1      88.885  47.334  41.915  1.00  0.00     0.000 A 
ATOM     20  C   UNL     1      90.788  48.815  41.900  1.00  0.00     0.000 A 
ATOM     21  C   UNL     1      90.236  47.559  41.659  1.00  0.00     0.000 A 
ENDBRANCH   5  16
BRANCH  10  22
ATOM     22  O   UNL     1      85.533  55.088  44.382  1.00  0.00    -0.507 OA
ATOM     23  H   UNL     1      85.544  55.855  44.998  1.00  0.00     0.293 HD
ENDBRANCH  10  22
TORSDOF 3
ENDMDL
MODEL 5
REMARK VINA RESULT:    -7.927      3.971      5.567
REMARK INTER + INTRA:          -9.201
REMARK INTER:                  -8.845
REMARK INTRA:                  -0.356
REMARK UNBOUND:                -0.347
REMARK SMILES Cc1c(O)c(C)c2c(c1O)C(=O)C[C@@H](c1ccccc1)O2
REMARK SMILES IDX 6 1 5 2 7 3 21 4 14 5 13 6 11 7 12 8 8 9 9 10 2 11 3 12 1 13
REMARK SMILES IDX 4 14 15 16 16 17 20 18 17 19 19 20 18 21 10 22
REMARK H PARENT 4 15 10 23
ROOT
ATOM      1  C   UNL     1      85.512  54.799  43.920  1.00  0.00     0.052 C 
ATOM      2  C   UNL     1      85.511  54.131  45.271  1.00  0.00     0.034 A 
ATOM      3  C   UNL     1      86.147  52.896  45.460  1.00  0.00     0.141 A 
ATOM      4  O   UNL     1      86.779  52.339  44.377  1.00  0.00    -0.484 OA
ATOM      5  C   UNL     1      87.838  51.439  44.736  1.00  0.00     0.211 C 
ATOM      6  C   UNL     1      87.302  50.312  45.603  1.00  0.00     0.131 C 
ATOM      7  C   UNL     1      86.711  50.925  46.839  1.00  0.00     0.174 C 
ATOM      8  O   UNL     1      86.683  50.339  47.920  1.00  0.00    -0.294 OA
ATOM      9  C   UNL     1      86.089  52.259  46.704  1.00  0.00     0.102 A 
ATOM     10  C   UNL     1      85.422  52.864  47.779  1.00  0.00     0.136 A 
ATOM     11  C   UNL     1      84.791  54.107  47.624  1.00  0.00     0.034 A 
ATOM     12  C   UNL     1      84.821  54.708  46.352  1.00  0.00     0.128 A 
ATOM     13  C   UNL     1      84.071  54.748  48.780  1.00  0.00     0.052 C 
ENDROOT
BRANCH  12  14
ATOM     14  O   UNL     1      84.170  55.891  46.108  1.00  0.00    -0.507 OA
ATOM     15  H   UNL     1      84.751  56.497  45.623  1.00  0.00     0.293 HD
ENDBRANCH  12  14
BRANCH   5  16
ATOM     16  C   UNL     1      88.469  50.884  43.473  1.00  0.00    -0.007 A 
ATOM     17  C   UNL     1      88.597  51.699  42.337  1.00  0.00     0.007 A 
ATOM     18  C   UNL     1      88.966  49.572  43.419  1.00  0.00     0.007 A 
ATOM     19  C   UNL     1      89.198  51.210  41.176  1.00  0.00     0.000 A 
ATOM     20  C   UNL     1      89.565  49.085  42.256  1.00  0.00     0.000 A 
ATOM     21  C   UNL     1      89.681  49.904  41.135  1.00  0.00     0.000 A 
ENDBRANCH   5  16
BRANCH  10  22
ATOM     22  O   UNL     1      85.349  52.259  49.009  1.00  0.00    -0.507 OA
ATOM     23  H   UNL     1      84.608  52.664  49.517  1.00  0.00     0.293 HD
ENDBRANCH  10  22
TORSDOF 3
ENDMDL
MODEL 6
REMARK VINA RESULT:    -7.761      3.280      5.709
REMARK INTER + INTRA:          -9.016
REMARK INTER:                  -8.664
REMARK INTRA:                  -0.353
REMARK UNBOUND:                -0.347
REMARK SMILES Cc1c(O)c(C)c2c(c1O)C(=O)C[C@@H](c1ccccc1)O2
REMARK SMILES IDX 6 1 5 2 7 3 21 4 14 5 13 6 11 7 12 8 8 9 9 10 2 11 3 12 1 13
REMARK SMILES IDX 4 14 15 16 16 17 20 18 17 19 19 20 18 21 10 22
REMARK H PARENT 4 15 10 23
ROOT
ATOM      1  C   UNL     1      81.712  51.804  42.091  1.00  0.00     0.052 C 
ATOM      2  C   UNL     1      81.830  50.450  42.740  1.00  0.00     0.034 A 
ATOM      3  C   UNL     1      83.087  49.882  42.992  1.00  0.00     0.141 A 
ATOM      4  O   UNL     1      84.193  50.616  42.640  1.00  0.00    -0.484 OA
ATOM      5  C   UNL     1      85.363  50.281  43.399  1.00  0.00     0.211 C 
ATOM      6  C   UNL     1      85.699  48.808  43.230  1.00  0.00     0.131 C 
ATOM      7  C   UNL     1      84.526  48.011  43.720  1.00  0.00     0.174 C 
ATOM      8  O   UNL     1      84.646  46.888  44.207  1.00  0.00    -0.294 OA
ATOM      9  C   UNL     1      83.182  48.600  43.541  1.00  0.00     0.102 A 
ATOM     10  C   UNL     1      82.023  47.885  43.875  1.00  0.00     0.136 A 
ATOM     11  C   UNL     1      80.752  48.434  43.651  1.00  0.00     0.034 A 
ATOM     12  C   UNL     1      80.678  49.706  43.054  1.00  0.00     0.128 A 
ATOM     13  C   UNL     1      79.511  47.659  44.006  1.00  0.00     0.052 C 
ENDROOT
BRANCH  12  14
ATOM     14  O   UNL     1      79.470  50.278  42.744  1.00  0.00    -0.507 OA
ATOM     15  H   UNL     1      78.942  49.670  42.206  1.00  0.00     0.293 HD
ENDBRANCH  12  14
BRANCH   5  16
ATOM     16  C   UNL     1      86.520  51.146  42.936  1.00  0.00    -0.007 A 
ATOM     17  C   UNL     1      87.785  50.573  42.727  1.00  0.00     0.007 A 
ATOM     18  C   UNL     1      86.351  52.515  42.673  1.00  0.00     0.007 A 
ATOM     19  C   UNL     1      88.852  51.351  42.276  1.00  0.00     0.000 A 
ATOM     20  C   UNL     1      87.420  53.292  42.224  1.00  0.00     0.000 A 
ATOM     21  C   UNL     1      88.671  52.710  42.026  1.00  0.00     0.000 A 
ENDBRANCH   5  16
BRANCH  10  22
ATOM     22  O   UNL     1      82.089  46.623  44.414  1.00  0.00    -0.507 OA
ATOM     23  H   UNL     1      82.756  46.624  45.137  1.00  0.00     0.293 HD
ENDBRANCH  10  22
TORSDOF 3
ENDMDL
MODEL 7
REMARK VINA RESULT:    -7.716      4.659      5.849
REMARK INTER + INTRA:          -8.965
REMARK INTER:                  -8.647
REMARK INTRA:                  -0.318
REMARK UNBOUND:                -0.347
REMARK SMILES Cc1c(O)c(C)c2c(c1O)C(=O)C[C@@H](c1ccccc1)O2
REMARK SMILES IDX 6 1 5 2 7 3 21 4 14 5 13 6 11 7 12 8 8 9 9 10 2 11 3 12 1 13
REMARK SMILES IDX 4 14 15 16 16 17 20 18 17 19 19 20 18 21 10 22
REMARK H PARENT 4 15 10 23
ROOT
ATOM      1  C   UNL     1      85.147  52.639  46.537  1.00  0.00     0.052 C 
ATOM      2  C   UNL     1      85.098  53.515  45.312  1.00  0.00     0.034 A 
ATOM      3  C   UNL     1      84.504  53.058  44.127  1.00  0.00     0.141 A 
ATOM      4  O   UNL     1      83.958  51.799  44.139  1.00  0.00    -0.484 OA
ATOM      5  C   UNL     1      82.919  51.620  43.165  1.00  0.00     0.211 C 
ATOM      6  C   UNL     1      83.451  51.892  41.768  1.00  0.00     0.131 C 
ATOM      7  C   UNL     1      83.945  53.309  41.733  1.00  0.00     0.174 C 
ATOM      8  O   UNL     1      83.934  53.988  40.708  1.00  0.00    -0.294 OA
ATOM      9  C   UNL     1      84.517  53.859  42.980  1.00  0.00     0.102 A 
ATOM     10  C   UNL     1      85.096  55.136  43.015  1.00  0.00     0.136 A 
ATOM     11  C   UNL     1      85.683  55.626  44.190  1.00  0.00     0.034 A 
ATOM     12  C   UNL     1      85.700  54.786  45.319  1.00  0.00     0.128 A 
ATOM     13  C   UNL     1      86.308  56.995  44.220  1.00  0.00     0.052 C 
ENDROOT
BRANCH  12  14
ATOM     14  O   UNL     1      86.314  55.171  46.484  1.00  0.00    -0.507 OA
ATOM     15  H   UNL     1      87.223  54.834  46.508  1.00  0.00     0.293 HD
ENDBRANCH  12  14
BRANCH   5  16
ATOM     16  C   UNL     1      82.385  50.203  43.264  1.00  0.00    -0.007 A 
ATOM     17  C   UNL     1      83.271  49.132  43.467  1.00  0.00     0.007 A 
ATOM     18  C   UNL     1      81.009  49.932  43.192  1.00  0.00     0.007 A 
ATOM     19  C   UNL     1      82.792  47.826  43.585  1.00  0.00     0.000 A 
ATOM     20  C   UNL     1      80.533  48.625  43.309  1.00  0.00     0.000 A 
ATOM     21  C   UNL     1      81.424  47.573  43.506  1.00  0.00     0.000 A 
ENDBRANCH   5  16
BRANCH  10  22
ATOM     22  O   UNL     1      85.124  55.941  41.902  1.00  0.00    -0.507 OA
ATOM     23  H   UNL     1      84.276  55.833  41.414  1.00  0.00     0.293 HD
ENDBRANCH  10  22
TORSDOF 3
ENDMDL
MODEL 8
REMARK VINA RESULT:    -7.710      3.685      6.647
REMARK INTER + INTRA:          -8.958
REMARK INTER:                  -8.631
REMARK INTRA:                  -0.328
REMARK UNBOUND:                -0.347
REMARK SMILES Cc1c(O)c(C)c2c(c1O)C(=O)C[C@@H](c1ccccc1)O2
REMARK SMILES IDX 6 1 5 2 7 3 21 4 14 5 13 6 11 7 12 8 8 9 9 10 2 11 3 12 1 13
REMARK SMILES IDX 4 14 15 16 16 17 20 18 17 19 19 20 18 21 10 22
REMARK H PARENT 4 15 10 23
ROOT
ATOM      1  C   UNL     1      88.086  50.029  45.668  1.00  0.00     0.052 C 
ATOM      2  C   UNL     1      88.032  50.714  44.328  1.00  0.00     0.034 A 
ATOM      3  C   UNL     1      87.201  51.824  44.123  1.00  0.00     0.141 A 
ATOM      4  O   UNL     1      86.461  52.265  45.193  1.00  0.00    -0.484 OA
ATOM      5  C   UNL     1      86.107  53.653  45.107  1.00  0.00     0.211 C 
ATOM      6  C   UNL     1      85.312  53.918  43.840  1.00  0.00     0.131 C 
ATOM      7  C   UNL     1      86.172  53.537  42.670  1.00  0.00     0.174 C 
ATOM      8  O   UNL     1      86.077  54.084  41.573  1.00  0.00    -0.294 OA
ATOM      9  C   UNL     1      87.116  52.416  42.859  1.00  0.00     0.102 A 
ATOM     10  C   UNL     1      87.885  51.923  41.794  1.00  0.00     0.136 A 
ATOM     11  C   UNL     1      88.738  50.825  41.973  1.00  0.00     0.034 A 
ATOM     12  C   UNL     1      88.773  50.216  43.241  1.00  0.00     0.128 A 
ATOM     13  C   UNL     1      89.556  50.298  40.824  1.00  0.00     0.052 C 
ENDROOT
BRANCH  12  14
ATOM     14  O   UNL     1      89.533  49.097  43.473  1.00  0.00    -0.507 OA
ATOM     15  H   UNL     1      89.043  48.302  43.213  1.00  0.00     0.293 HD
ENDBRANCH  12  14
BRANCH   5  16
ATOM     16  C   UNL     1      85.298  54.035  46.332  1.00  0.00    -0.007 A 
ATOM     17  C   UNL     1      85.329  55.355  46.809  1.00  0.00     0.007 A 
ATOM     18  C   UNL     1      84.480  53.102  46.989  1.00  0.00     0.007 A 
ATOM     19  C   UNL     1      84.570  55.728  47.920  1.00  0.00     0.000 A 
ATOM     20  C   UNL     1      83.723  53.477  48.101  1.00  0.00     0.000 A 
ATOM     21  C   UNL     1      83.768  54.789  48.566  1.00  0.00     0.000 A 
ENDBRANCH   5  16
BRANCH  10  22
ATOM     22  O   UNL     1      87.818  52.485  40.542  1.00  0.00    -0.507 OA
ATOM     23  H   UNL     1      87.606  51.778  39.891  1.00  0.00     0.293 HD
ENDBRANCH  10  22
TORSDOF 3
ENDMDL
MODEL 9
REMARK VINA RESULT:    -7.561      3.078      4.724
REMARK INTER + INTRA:          -8.792
REMARK INTER:                  -8.445
REMARK INTRA:                  -0.347
REMARK UNBOUND:                -0.347
REMARK SMILES Cc1c(O)c(C)c2c(c1O)C(=O)C[C@@H](c1ccccc1)O2
REMARK SMILES IDX 6 1 5 2 7 3 21 4 14 5 13 6 11 7 12 8 8 9 9 10 2 11 3 12 1 13
REMARK SMILES IDX 4 14 15 16 16 17 20 18 17 19 19 20 18 21 10 22
REMARK H PARENT 4 15 10 23
ROOT
ATOM      1  C   UNL     1      84.272  45.322  43.643  1.00  0.00     0.052 C 
ATOM      2  C   UNL     1      83.722  46.723  43.595  1.00  0.00     0.034 A 
ATOM      3  C   UNL     1      84.579  47.827  43.476  1.00  0.00     0.141 A 
ATOM      4  O   UNL     1      85.926  47.573  43.388  1.00  0.00    -0.484 OA
ATOM      5  C   UNL     1      86.658  48.612  42.721  1.00  0.00     0.211 C 
ATOM      6  C   UNL     1      86.472  49.936  43.444  1.00  0.00     0.131 C 
ATOM      7  C   UNL     1      85.007  50.260  43.438  1.00  0.00     0.174 C 
ATOM      8  O   UNL     1      84.584  51.415  43.444  1.00  0.00    -0.294 OA
ATOM      9  C   UNL     1      84.061  49.125  43.492  1.00  0.00     0.102 A 
ATOM     10  C   UNL     1      82.678  49.334  43.594  1.00  0.00     0.136 A 
ATOM     11  C   UNL     1      81.794  48.250  43.697  1.00  0.00     0.034 A 
ATOM     12  C   UNL     1      82.340  46.954  43.727  1.00  0.00     0.128 A 
ATOM     13  C   UNL     1      80.311  48.481  43.812  1.00  0.00     0.052 C 
ENDROOT
BRANCH  12  14
ATOM     14  O   UNL     1      81.544  45.848  43.892  1.00  0.00    -0.507 OA
ATOM     15  H   UNL     1      81.020  45.934  44.703  1.00  0.00     0.293 HD
ENDBRANCH  12  14
BRANCH   5  16
ATOM     16  C   UNL     1      88.127  48.233  42.676  1.00  0.00    -0.007 A 
ATOM     17  C   UNL     1      89.102  49.154  43.091  1.00  0.00     0.007 A 
ATOM     18  C   UNL     1      88.541  46.959  42.258  1.00  0.00     0.007 A 
ATOM     19  C   UNL     1      90.454  48.811  43.079  1.00  0.00     0.000 A 
ATOM     20  C   UNL     1      89.895  46.618  42.245  1.00  0.00     0.000 A 
ATOM     21  C   UNL     1      90.851  47.544  42.655  1.00  0.00     0.000 A 
ENDBRANCH   5  16
BRANCH  10  22
ATOM     22  O   UNL     1      82.143  50.599  43.614  1.00  0.00    -0.507 OA
ATOM     23  H   UNL     1      82.829  51.226  43.938  1.00  0.00     0.293 HD
ENDBRANCH  10  22
TORSDOF 3
ENDMDL
