MODEL 1
REMARK VINA RESULT:    -8.653      0.000      0.000
REMARK INTER + INTRA:          -8.653
REMARK INTER:                  -8.653
REMARK INTRA:                   0.000
REMARK UNBOUND:                 0.000
REMARK SMILES CC12CCC3C(CCC4=CC(=O)CCC43C)C1CCC2=O
REMARK SMILES IDX 1 1 2 2 3 3 4 4 5 5 6 6 17 7 18 8 19 9 20 10 21 11 7 12 8 13
REMARK SMILES IDX 9 14 10 15 11 16 12 17 13 18 14 19 15 20 16 21
REMARK H PARENT
ROOT
ATOM      1  C   UNL     1      84.501  55.333  40.576  1.00  0.00     0.020 C 
ATOM      2  C   UNL     1      84.133  54.621  41.884  1.00  0.00     0.029 C 
ATOM      3  C   UNL     1      83.762  55.627  42.989  1.00  0.00     0.015 C 
ATOM      4  C   UNL     1      84.979  56.046  43.806  1.00  0.00     0.006 C 
ATOM      5  C   UNL     1      85.668  54.856  44.506  1.00  0.00     0.002 C 
ATOM      6  C   UNL     1      85.331  53.491  43.850  1.00  0.00    -0.003 C 
ATOM      7  C   UNL     1      85.246  53.622  42.312  1.00  0.00     0.006 C 
ATOM      8  C   UNL     1      84.872  52.317  41.595  1.00  0.00     0.013 C 
ATOM      9  C   UNL     1      83.355  52.235  41.658  1.00  0.00     0.076 C 
ATOM     10  C   UNL     1      82.960  53.687  41.612  1.00  0.00     0.139 C 
ATOM     11  O   UNL     1      81.814  54.064  41.395  1.00  0.00    -0.299 OA
ATOM     12  C   UNL     1      86.360  52.430  44.308  1.00  0.00     0.008 C 
ATOM     13  C   UNL     1      86.920  52.682  45.715  1.00  0.00     0.032 C 
ATOM     14  C   UNL     1      85.908  53.399  46.571  1.00  0.00    -0.060 C 
ATOM     15  C   UNL     1      85.376  52.803  47.651  1.00  0.00     0.047 C 
ATOM     16  C   UNL     1      84.316  53.456  48.454  1.00  0.00     0.155 C 
ATOM     17  O   UNL     1      83.933  52.919  49.491  1.00  0.00    -0.295 OA
ATOM     18  C   UNL     1      83.764  54.780  47.987  1.00  0.00     0.081 C 
ATOM     19  C   UNL     1      84.001  55.010  46.497  1.00  0.00     0.019 C 
ATOM     20  C   UNL     1      85.476  54.783  46.071  1.00  0.00    -0.008 C 
ATOM     21  C   UNL     1      86.381  55.853  46.725  1.00  0.00     0.016 C 
ENDROOT
TORSDOF 0
ENDMDL
MODEL 2
REMARK VINA RESULT:    -8.405      1.435      5.574
REMARK INTER + INTRA:          -8.405
REMARK INTER:                  -8.405
REMARK INTRA:                   0.000
REMARK UNBOUND:                 0.000
REMARK SMILES CC12CCC3C(CCC4=CC(=O)CCC43C)C1CCC2=O
REMARK SMILES IDX 1 1 2 2 3 3 4 4 5 5 6 6 17 7 18 8 19 9 20 10 21 11 7 12 8 13
REMARK SMILES IDX 9 14 10 15 11 16 12 17 13 18 14 19 15 20 16 21
REMARK H PARENT
ROOT
ATOM      1  C   UNL     1      86.738  55.978  47.418  1.00  0.00     0.020 C 
ATOM      2  C   UNL     1      85.546  55.389  46.653  1.00  0.00     0.029 C 
ATOM      3  C   UNL     1      85.711  53.875  46.431  1.00  0.00     0.015 C 
ATOM      4  C   UNL     1      86.432  53.568  45.124  1.00  0.00     0.006 C 
ATOM      5  C   UNL     1      85.690  54.117  43.887  1.00  0.00     0.002 C 
ATOM      6  C   UNL     1      84.701  55.261  44.235  1.00  0.00    -0.003 C 
ATOM      7  C   UNL     1      85.280  56.177  45.337  1.00  0.00     0.006 C 
ATOM      8  C   UNL     1      84.336  57.310  45.765  1.00  0.00     0.013 C 
ATOM      9  C   UNL     1      83.395  56.694  46.789  1.00  0.00     0.076 C 
ATOM     10  C   UNL     1      84.276  55.667  47.448  1.00  0.00     0.139 C 
ATOM     11  O   UNL     1      83.985  55.108  48.499  1.00  0.00    -0.299 OA
ATOM     12  C   UNL     1      84.331  56.032  42.945  1.00  0.00     0.008 C 
ATOM     13  C   UNL     1      84.353  55.162  41.680  1.00  0.00     0.032 C 
ATOM     14  C   UNL     1      84.024  53.730  42.011  1.00  0.00    -0.060 C 
ATOM     15  C   UNL     1      82.905  53.155  41.540  1.00  0.00     0.047 C 
ATOM     16  C   UNL     1      82.519  51.778  41.925  1.00  0.00     0.155 C 
ATOM     17  O   UNL     1      81.543  51.256  41.389  1.00  0.00    -0.295 OA
ATOM     18  C   UNL     1      83.360  51.046  42.942  1.00  0.00     0.081 C 
ATOM     19  C   UNL     1      84.178  52.002  43.807  1.00  0.00     0.019 C 
ATOM     20  C   UNL     1      84.989  53.033  42.979  1.00  0.00    -0.008 C 
ATOM     21  C   UNL     1      86.078  52.306  42.156  1.00  0.00     0.016 C 
ENDROOT
TORSDOF 0
ENDMDL
MODEL 3
REMARK VINA RESULT:    -8.264      1.175      5.828
REMARK INTER + INTRA:          -8.264
REMARK INTER:                  -8.264
REMARK INTRA:                   0.000
REMARK UNBOUND:                 0.000
REMARK SMILES CC12CCC3C(CCC4=CC(=O)CCC43C)C1CCC2=O
REMARK SMILES IDX 1 1 2 2 3 3 4 4 5 5 6 6 17 7 18 8 19 9 20 10 21 11 7 12 8 13
REMARK SMILES IDX 9 14 10 15 11 16 12 17 13 18 14 19 15 20 16 21
REMARK H PARENT
ROOT
ATOM      1  C   UNL     1      85.984  52.735  48.759  1.00  0.00     0.020 C 
ATOM      2  C   UNL     1      85.143  53.236  47.578  1.00  0.00     0.029 C 
ATOM      3  C   UNL     1      85.089  52.198  46.443  1.00  0.00     0.015 C 
ATOM      4  C   UNL     1      86.224  52.390  45.443  1.00  0.00     0.006 C 
ATOM      5  C   UNL     1      86.201  53.779  44.772  1.00  0.00     0.002 C 
ATOM      6  C   UNL     1      85.401  54.831  45.586  1.00  0.00    -0.003 C 
ATOM      7  C   UNL     1      85.621  54.639  47.104  1.00  0.00     0.006 C 
ATOM      8  C   UNL     1      84.825  55.619  47.978  1.00  0.00     0.013 C 
ATOM      9  C   UNL     1      83.437  55.011  48.115  1.00  0.00     0.076 C 
ATOM     10  C   UNL     1      83.736  53.537  48.080  1.00  0.00     0.139 C 
ATOM     11  O   UNL     1      82.922  52.679  48.405  1.00  0.00    -0.299 OA
ATOM     12  C   UNL     1      85.773  56.251  45.099  1.00  0.00     0.008 C 
ATOM     13  C   UNL     1      86.163  56.312  43.615  1.00  0.00     0.032 C 
ATOM     14  C   UNL     1      85.453  55.237  42.833  1.00  0.00    -0.060 C 
ATOM     15  C   UNL     1      84.553  55.556  41.887  1.00  0.00     0.047 C 
ATOM     16  C   UNL     1      83.781  54.516  41.170  1.00  0.00     0.155 C 
ATOM     17  O   UNL     1      83.046  54.848  40.242  1.00  0.00    -0.295 OA
ATOM     18  C   UNL     1      83.948  53.074  41.581  1.00  0.00     0.081 C 
ATOM     19  C   UNL     1      84.489  52.940  43.003  1.00  0.00     0.019 C 
ATOM     20  C   UNL     1      85.758  53.795  43.257  1.00  0.00    -0.008 C 
ATOM     21  C   UNL     1      86.930  53.263  42.399  1.00  0.00     0.016 C 
ENDROOT
TORSDOF 0
ENDMDL
MODEL 4
REMARK VINA RESULT:    -7.893      2.610      5.496
REMARK INTER + INTRA:          -7.893
REMARK INTER:                  -7.893
REMARK INTRA:                   0.000
REMARK UNBOUND:                 0.000
REMARK SMILES CC12CCC3C(CCC4=CC(=O)CCC43C)C1CCC2=O
REMARK SMILES IDX 1 1 2 2 3 3 4 4 5 5 6 6 17 7 18 8 19 9 20 10 21 11 7 12 8 13
REMARK SMILES IDX 9 14 10 15 11 16 12 17 13 18 14 19 15 20 16 21
REMARK H PARENT
ROOT
ATOM      1  C   UNL     1      83.748  56.617  46.497  1.00  0.00     0.020 C 
ATOM      2  C   UNL     1      84.833  55.592  46.140  1.00  0.00     0.029 C 
ATOM      3  C   UNL     1      85.595  55.998  44.866  1.00  0.00     0.015 C 
ATOM      4  C   UNL     1      84.944  55.430  43.610  1.00  0.00     0.006 C 
ATOM      5  C   UNL     1      84.879  53.889  43.614  1.00  0.00     0.002 C 
ATOM      6  C   UNL     1      84.993  53.282  45.038  1.00  0.00    -0.003 C 
ATOM      7  C   UNL     1      84.244  54.153  46.072  1.00  0.00     0.006 C 
ATOM      8  C   UNL     1      84.350  53.638  47.514  1.00  0.00     0.013 C 
ATOM      9  C   UNL     1      85.673  54.170  48.044  1.00  0.00     0.076 C 
ATOM     10  C   UNL     1      85.797  55.481  47.315  1.00  0.00     0.139 C 
ATOM     11  O   UNL     1      86.603  56.350  47.630  1.00  0.00    -0.299 OA
ATOM     12  C   UNL     1      84.500  51.816  45.015  1.00  0.00     0.008 C 
ATOM     13  C   UNL     1      84.731  51.109  43.672  1.00  0.00     0.032 C 
ATOM     14  C   UNL     1      85.940  51.673  42.974  1.00  0.00    -0.060 C 
ATOM     15  C   UNL     1      87.030  50.915  42.763  1.00  0.00     0.047 C 
ATOM     16  C   UNL     1      88.260  51.475  42.158  1.00  0.00     0.155 C 
ATOM     17  O   UNL     1      89.193  50.721  41.890  1.00  0.00    -0.295 OA
ATOM     18  C   UNL     1      88.314  52.953  41.859  1.00  0.00     0.081 C 
ATOM     19  C   UNL     1      87.306  53.745  42.688  1.00  0.00     0.019 C 
ATOM     20  C   UNL     1      85.869  53.164  42.620  1.00  0.00    -0.008 C 
ATOM     21  C   UNL     1      85.312  53.308  41.184  1.00  0.00     0.016 C 
ENDROOT
TORSDOF 0
ENDMDL
MODEL 5
REMARK VINA RESULT:    -7.882      3.637      5.194
REMARK INTER + INTRA:          -7.882
REMARK INTER:                  -7.882
REMARK INTRA:                   0.000
REMARK UNBOUND:                 0.000
REMARK SMILES CC12CCC3C(CCC4=CC(=O)CCC43C)C1CCC2=O
REMARK SMILES IDX 1 1 2 2 3 3 4 4 5 5 6 6 17 7 18 8 19 9 20 10 21 11 7 12 8 13
REMARK SMILES IDX 9 14 10 15 11 16 12 17 13 18 14 19 15 20 16 21
REMARK H PARENT
ROOT
ATOM      1  C   UNL     1      89.734  53.552  41.240  1.00  0.00     0.020 C 
ATOM      2  C   UNL     1      88.664  52.454  41.290  1.00  0.00     0.029 C 
ATOM      3  C   UNL     1      87.244  53.048  41.257  1.00  0.00     0.015 C 
ATOM      4  C   UNL     1      86.716  53.333  42.658  1.00  0.00     0.006 C 
ATOM      5  C   UNL     1      86.645  52.070  43.540  1.00  0.00     0.002 C 
ATOM      6  C   UNL     1      87.570  50.928  43.037  1.00  0.00    -0.003 C 
ATOM      7  C   UNL     1      88.900  51.495  42.492  1.00  0.00     0.006 C 
ATOM      8  C   UNL     1      89.851  50.425  41.935  1.00  0.00     0.013 C 
ATOM      9  C   UNL     1      89.390  50.171  40.508  1.00  0.00     0.076 C 
ATOM     10  C   UNL     1      88.870  51.523  40.101  1.00  0.00     0.139 C 
ATOM     11  O   UNL     1      88.626  51.826  38.938  1.00  0.00    -0.299 OA
ATOM     12  C   UNL     1      87.774  49.893  44.168  1.00  0.00     0.008 C 
ATOM     13  C   UNL     1      86.577  49.779  45.123  1.00  0.00     0.032 C 
ATOM     14  C   UNL     1      85.292  50.105  44.408  1.00  0.00    -0.060 C 
ATOM     15  C   UNL     1      84.346  49.166  44.232  1.00  0.00     0.047 C 
ATOM     16  C   UNL     1      83.115  49.442  43.455  1.00  0.00     0.155 C 
ATOM     17  O   UNL     1      82.232  48.587  43.408  1.00  0.00    -0.295 OA
ATOM     18  C   UNL     1      82.971  50.779  42.773  1.00  0.00     0.081 C 
ATOM     19  C   UNL     1      84.320  51.459  42.548  1.00  0.00     0.019 C 
ATOM     20  C   UNL     1      85.193  51.522  43.829  1.00  0.00    -0.008 C 
ATOM     21  C   UNL     1      84.523  52.441  44.876  1.00  0.00     0.016 C 
ENDROOT
TORSDOF 0
ENDMDL
MODEL 6
REMARK VINA RESULT:    -7.785      3.636      5.402
REMARK INTER + INTRA:          -7.785
REMARK INTER:                  -7.785
REMARK INTRA:                   0.000
REMARK UNBOUND:                 0.000
REMARK SMILES CC12CCC3C(CCC4=CC(=O)CCC43C)C1CCC2=O
REMARK SMILES IDX 1 1 2 2 3 3 4 4 5 5 6 6 17 7 18 8 19 9 20 10 21 11 7 12 8 13
REMARK SMILES IDX 9 14 10 15 11 16 12 17 13 18 14 19 15 20 16 21
REMARK H PARENT
ROOT
ATOM      1  C   UNL     1      87.966  48.014  41.625  1.00  0.00     0.020 C 
ATOM      2  C   UNL     1      88.177  49.328  42.388  1.00  0.00     0.029 C 
ATOM      3  C   UNL     1      87.559  49.268  43.797  1.00  0.00     0.015 C 
ATOM      4  C   UNL     1      86.111  49.743  43.802  1.00  0.00     0.006 C 
ATOM      5  C   UNL     1      85.956  51.198  43.314  1.00  0.00     0.002 C 
ATOM      6  C   UNL     1      87.160  51.681  42.462  1.00  0.00    -0.003 C 
ATOM      7  C   UNL     1      87.685  50.547  41.554  1.00  0.00     0.006 C 
ATOM      8  C   UNL     1      88.907  50.938  40.711  1.00  0.00     0.013 C 
ATOM      9  C   UNL     1      90.111  50.749  41.621  1.00  0.00     0.076 C 
ATOM     10  C   UNL     1      89.674  49.596  42.484  1.00  0.00     0.139 C 
ATOM     11  O   UNL     1      90.444  48.961  43.195  1.00  0.00    -0.299 OA
ATOM     12  C   UNL     1      86.756  52.948  41.671  1.00  0.00     0.008 C 
ATOM     13  C   UNL     1      85.704  53.810  42.383  1.00  0.00     0.032 C 
ATOM     14  C   UNL     1      85.823  53.670  43.878  1.00  0.00    -0.060 C 
ATOM     15  C   UNL     1      86.180  54.718  44.640  1.00  0.00     0.047 C 
ATOM     16  C   UNL     1      86.387  54.579  46.100  1.00  0.00     0.155 C 
ATOM     17  O   UNL     1      86.611  55.584  46.772  1.00  0.00    -0.295 OA
ATOM     18  C   UNL     1      86.284  53.208  46.721  1.00  0.00     0.081 C 
ATOM     19  C   UNL     1      86.491  52.095  45.697  1.00  0.00     0.019 C 
ATOM     20  C   UNL     1      85.607  52.256  44.433  1.00  0.00    -0.008 C 
ATOM     21  C   UNL     1      84.116  52.094  44.810  1.00  0.00     0.016 C 
ENDROOT
TORSDOF 0
ENDMDL
MODEL 7
REMARK VINA RESULT:    -7.690      3.599      5.966
REMARK INTER + INTRA:          -7.690
REMARK INTER:                  -7.690
REMARK INTRA:                   0.000
REMARK UNBOUND:                 0.000
REMARK SMILES CC12CCC3C(CCC4=CC(=O)CCC43C)C1CCC2=O
REMARK SMILES IDX 1 1 2 2 3 3 4 4 5 5 6 6 17 7 18 8 19 9 20 10 21 11 7 12 8 13
REMARK SMILES IDX 9 14 10 15 11 16 12 17 13 18 14 19 15 20 16 21
REMARK H PARENT
ROOT
ATOM      1  C   UNL     1      89.731  49.249  43.932  1.00  0.00     0.020 C 
ATOM      2  C   UNL     1      88.502  49.659  43.111  1.00  0.00     0.029 C 
ATOM      3  C   UNL     1      88.246  51.174  43.194  1.00  0.00     0.015 C 
ATOM      4  C   UNL     1      87.327  51.531  44.356  1.00  0.00     0.006 C 
ATOM      5  C   UNL     1      85.943  50.856  44.255  1.00  0.00     0.002 C 
ATOM      6  C   UNL     1      85.947  49.605  43.335  1.00  0.00    -0.003 C 
ATOM      7  C   UNL     1      87.259  48.805  43.497  1.00  0.00     0.006 C 
ATOM      8  C   UNL     1      87.354  47.574  42.584  1.00  0.00     0.013 C 
ATOM      9  C   UNL     1      87.853  48.094  41.245  1.00  0.00     0.076 C 
ATOM     10  C   UNL     1      88.729  49.245  41.662  1.00  0.00     0.139 C 
ATOM     11  O   UNL     1      89.522  49.793  40.905  1.00  0.00    -0.299 OA
ATOM     12  C   UNL     1      84.685  48.756  43.615  1.00  0.00     0.008 C 
ATOM     13  C   UNL     1      83.474  49.583  44.069  1.00  0.00     0.032 C 
ATOM     14  C   UNL     1      83.527  50.970  43.486  1.00  0.00    -0.060 C 
ATOM     15  C   UNL     1      82.595  51.384  42.609  1.00  0.00     0.047 C 
ATOM     16  C   UNL     1      82.679  52.711  41.958  1.00  0.00     0.155 C 
ATOM     17  O   UNL     1      81.752  53.088  41.243  1.00  0.00    -0.295 OA
ATOM     18  C   UNL     1      83.888  53.574  42.220  1.00  0.00     0.081 C 
ATOM     19  C   UNL     1      85.085  52.757  42.701  1.00  0.00     0.019 C 
ATOM     20  C   UNL     1      84.744  51.814  43.885  1.00  0.00    -0.008 C 
ATOM     21  C   UNL     1      84.382  52.649  45.135  1.00  0.00     0.016 C 
ENDROOT
TORSDOF 0
ENDMDL
MODEL 8
REMARK VINA RESULT:    -7.588      2.971      5.431
REMARK INTER + INTRA:          -7.588
REMARK INTER:                  -7.588
REMARK INTRA:                   0.000
REMARK UNBOUND:                 0.000
REMARK SMILES CC12CCC3C(CCC4=CC(=O)CCC43C)C1CCC2=O
REMARK SMILES IDX 1 1 2 2 3 3 4 4 5 5 6 6 17 7 18 8 19 9 20 10 21 11 7 12 8 13
REMARK SMILES IDX 9 14 10 15 11 16 12 17 13 18 14 19 15 20 16 21
REMARK H PARENT
ROOT
ATOM      1  C   UNL     1      83.385  55.734  46.359  1.00  0.00     0.020 C 
ATOM      2  C   UNL     1      84.700  55.005  46.056  1.00  0.00     0.029 C 
ATOM      3  C   UNL     1      84.683  54.369  44.655  1.00  0.00     0.015 C 
ATOM      4  C   UNL     1      84.144  52.943  44.685  1.00  0.00     0.006 C 
ATOM      5  C   UNL     1      84.978  52.007  45.584  1.00  0.00     0.002 C 
ATOM      6  C   UNL     1      85.827  52.774  46.633  1.00  0.00    -0.003 C 
ATOM      7  C   UNL     1      85.054  53.993  47.185  1.00  0.00     0.006 C 
ATOM      8  C   UNL     1      85.849  54.829  48.198  1.00  0.00     0.013 C 
ATOM      9  C   UNL     1      86.711  55.767  47.369  1.00  0.00     0.076 C 
ATOM     10  C   UNL     1      85.844  56.006  46.162  1.00  0.00     0.139 C 
ATOM     11  O   UNL     1      86.055  56.900  45.351  1.00  0.00    -0.299 OA
ATOM     12  C   UNL     1      86.282  51.797  47.743  1.00  0.00     0.008 C 
ATOM     13  C   UNL     1      86.475  50.355  47.253  1.00  0.00     0.032 C 
ATOM     14  C   UNL     1      86.875  50.334  45.801  1.00  0.00    -0.060 C 
ATOM     15  C   UNL     1      88.084  49.880  45.427  1.00  0.00     0.047 C 
ATOM     16  C   UNL     1      88.530  49.933  44.016  1.00  0.00     0.155 C 
ATOM     17  O   UNL     1      89.600  49.412  43.706  1.00  0.00    -0.295 OA
ATOM     18  C   UNL     1      87.638  50.598  42.997  1.00  0.00     0.081 C 
ATOM     19  C   UNL     1      86.652  51.569  43.642  1.00  0.00     0.019 C 
ATOM     20  C   UNL     1      85.864  50.944  44.823  1.00  0.00    -0.008 C 
ATOM     21  C   UNL     1      84.938  49.821  44.301  1.00  0.00     0.016 C 
ENDROOT
TORSDOF 0
ENDMDL
MODEL 9
REMARK VINA RESULT:    -7.178      2.112      2.675
REMARK INTER + INTRA:          -7.178
REMARK INTER:                  -7.178
REMARK INTRA:                   0.000
REMARK UNBOUND:                 0.000
REMARK SMILES CC12CCC3C(CCC4=CC(=O)CCC43C)C1CCC2=O
REMARK SMILES IDX 1 1 2 2 3 3 4 4 5 5 6 6 17 7 18 8 19 9 20 10 21 11 7 12 8 13
REMARK SMILES IDX 9 14 10 15 11 16 12 17 13 18 14 19 15 20 16 21
REMARK H PARENT
ROOT
ATOM      1  C   UNL     1      88.431  52.971  41.995  1.00  0.00     0.020 C 
ATOM      2  C   UNL     1      87.107  53.034  42.765  1.00  0.00     0.029 C 
ATOM      3  C   UNL     1      86.658  54.487  43.000  1.00  0.00     0.015 C 
ATOM      4  C   UNL     1      87.203  55.045  44.309  1.00  0.00     0.006 C 
ATOM      5  C   UNL     1      86.744  54.238  45.541  1.00  0.00     0.002 C 
ATOM      6  C   UNL     1      86.288  52.797  45.184  1.00  0.00    -0.003 C 
ATOM      7  C   UNL     1      87.179  52.195  44.074  1.00  0.00     0.006 C 
ATOM      8  C   UNL     1      86.761  50.784  43.637  1.00  0.00     0.013 C 
ATOM      9  C   UNL     1      85.649  50.983  42.619  1.00  0.00     0.076 C 
ATOM     10  C   UNL     1      86.048  52.280  41.968  1.00  0.00     0.139 C 
ATOM     11  O   UNL     1      85.556  52.686  40.922  1.00  0.00    -0.299 OA
ATOM     12  C   UNL     1      86.259  51.933  46.467  1.00  0.00     0.008 C 
ATOM     13  C   UNL     1      85.939  52.731  47.740  1.00  0.00     0.032 C 
ATOM     14  C   UNL     1      85.068  53.917  47.421  1.00  0.00    -0.060 C 
ATOM     15  C   UNL     1      83.813  53.998  47.897  1.00  0.00     0.047 C 
ATOM     16  C   UNL     1      82.912  55.112  47.523  1.00  0.00     0.155 C 
ATOM     17  O   UNL     1      81.811  55.199  48.064  1.00  0.00    -0.295 OA
ATOM     18  C   UNL     1      83.389  56.124  46.512  1.00  0.00     0.081 C 
ATOM     19  C   UNL     1      84.517  55.579  45.640  1.00  0.00     0.019 C 
ATOM     20  C   UNL     1      85.673  54.948  46.459  1.00  0.00    -0.008 C 
ATOM     21  C   UNL     1      86.387  56.041  47.288  1.00  0.00     0.016 C 
ENDROOT
TORSDOF 0
ENDMDL
