MODEL 1
REMARK VINA RESULT:   -10.269      0.000      0.000
REMARK INTER + INTRA:         -13.585
REMARK INTER:                 -12.583
REMARK INTRA:                  -1.002
REMARK UNBOUND:                -0.914
REMARK SMILES CC(C)=CCc1c2c(c(O)c3c1OC(c1ccc(O)cc1)CC3=O)C=CC(C)(C)O2
REMARK SMILES IDX 6 1 12 2 13 3 14 4 22 5 23 6 24 7 11 8 9 9 8 10 7 11 30 12
REMARK SMILES IDX 27 13 28 14 29 15 26 16 25 17 5 18 4 19 2 20 1 21 3 22 15 23
REMARK SMILES IDX 16 24 21 25 17 26 20 27 18 28 19 29 10 31
REMARK H PARENT 19 30 10 32
ROOT
ATOM      1  C   UNL     1      85.851  49.961  43.533  1.00  0.00     0.042 A 
ATOM      2  C   UNL     1      86.630  51.037  43.073  1.00  0.00     0.142 A 
ATOM      3  O   UNL     1      86.228  52.303  43.424  1.00  0.00    -0.484 OA
ATOM      4  C   UNL     1      86.638  53.305  42.484  1.00  0.00     0.211 C 
ATOM      5  C   UNL     1      88.153  53.325  42.371  1.00  0.00     0.131 C 
ATOM      6  C   UNL     1      88.598  51.969  41.905  1.00  0.00     0.174 C 
ATOM      7  O   UNL     1      89.624  51.798  41.248  1.00  0.00    -0.294 OA
ATOM      8  C   UNL     1      87.782  50.807  42.314  1.00  0.00     0.103 A 
ATOM      9  C   UNL     1      88.156  49.499  41.979  1.00  0.00     0.141 A 
ATOM     10  C   UNL     1      87.377  48.412  42.403  1.00  0.00     0.060 A 
ATOM     11  C   UNL     1      86.229  48.650  43.174  1.00  0.00     0.138 A 
ATOM     12  O   UNL     1      85.426  47.640  43.637  1.00  0.00    -0.483 OA
ATOM     13  C   UNL     1      85.606  46.301  43.135  1.00  0.00     0.122 C 
ATOM     14  C   UNL     1      84.430  46.010  42.196  1.00  0.00     0.061 C 
ATOM     15  C   UNL     1      85.527  45.382  44.360  1.00  0.00     0.061 C 
ATOM     16  C   UNL     1      86.906  46.056  42.414  1.00  0.00     0.021 C 
ATOM     17  C   UNL     1      87.743  47.038  42.072  1.00  0.00     0.015 C 
ENDROOT
BRANCH   1  18
ATOM     18  C   UNL     1      84.595  50.212  44.345  1.00  0.00     0.070 C 
BRANCH  18  19
ATOM     19  C   UNL     1      83.428  50.600  43.474  1.00  0.00    -0.023 C 
ATOM     20  C   UNL     1      82.291  49.915  43.238  1.00  0.00    -0.080 C 
ATOM     21  C   UNL     1      81.940  48.576  43.830  1.00  0.00     0.039 C 
ATOM     22  C   UNL     1      81.237  50.477  42.321  1.00  0.00     0.039 C 
ENDBRANCH  18  19
ENDBRANCH   1  18
BRANCH   4  23
ATOM     23  C   UNL     1      86.111  54.650  42.945  1.00  0.00    -0.007 A 
ATOM     24  C   UNL     1      86.862  55.431  43.838  1.00  0.00     0.011 A 
ATOM     25  C   UNL     1      84.863  55.131  42.513  1.00  0.00     0.011 A 
ATOM     26  C   UNL     1      86.383  56.667  44.282  1.00  0.00     0.046 A 
ATOM     27  C   UNL     1      84.386  56.366  42.956  1.00  0.00     0.046 A 
ATOM     28  C   UNL     1      85.148  57.123  43.835  1.00  0.00     0.115 A 
BRANCH  28  29
ATOM     29  O   UNL     1      84.644  58.323  44.242  1.00  0.00    -0.508 OA
ATOM     30  H   UNL     1      85.214  58.678  44.944  1.00  0.00     0.293 HD
ENDBRANCH  28  29
ENDBRANCH   4  23
BRANCH   9  31
ATOM     31  O   UNL     1      89.285  49.243  41.235  1.00  0.00    -0.506 OA
ATOM     32  H   UNL     1      89.011  48.962  40.332  1.00  0.00     0.293 HD
ENDBRANCH   9  31
TORSDOF 5
ENDMDL
MODEL 2
REMARK VINA RESULT:   -10.065      2.545      5.775
REMARK INTER + INTRA:         -13.332
REMARK INTER:                 -12.369
REMARK INTRA:                  -0.963
REMARK UNBOUND:                -0.914
REMARK SMILES CC(C)=CCc1c2c(c(O)c3c1OC(c1ccc(O)cc1)CC3=O)C=CC(C)(C)O2
REMARK SMILES IDX 6 1 12 2 13 3 14 4 22 5 23 6 24 7 11 8 9 9 8 10 7 11 30 12
REMARK SMILES IDX 27 13 28 14 29 15 26 16 25 17 5 18 4 19 2 20 1 21 3 22 15 23
REMARK SMILES IDX 16 24 21 25 17 26 20 27 18 28 19 29 10 31
REMARK H PARENT 19 30 10 32
ROOT
ATOM      1  C   UNL     1      86.583  49.220  43.252  1.00  0.00     0.042 A 
ATOM      2  C   UNL     1      85.518  50.093  42.971  1.00  0.00     0.142 A 
ATOM      3  O   UNL     1      84.271  49.733  43.423  1.00  0.00    -0.484 OA
ATOM      4  C   UNL     1      83.207  50.274  42.629  1.00  0.00     0.211 C 
ATOM      5  C   UNL     1      83.271  51.792  42.635  1.00  0.00     0.131 C 
ATOM      6  C   UNL     1      84.598  52.199  42.064  1.00  0.00     0.174 C 
ATOM      7  O   UNL     1      84.766  53.265  41.474  1.00  0.00    -0.294 OA
ATOM      8  C   UNL     1      85.742  51.289  42.283  1.00  0.00     0.103 A 
ATOM      9  C   UNL     1      87.031  51.618  41.840  1.00  0.00     0.141 A 
ATOM     10  C   UNL     1      88.103  50.747  42.085  1.00  0.00     0.060 A 
ATOM     11  C   UNL     1      87.872  49.554  42.786  1.00  0.00     0.138 A 
ATOM     12  O   UNL     1      88.872  48.661  43.076  1.00  0.00    -0.483 OA
ATOM     13  C   UNL     1      90.161  48.808  42.450  1.00  0.00     0.122 C 
ATOM     14  C   UNL     1      90.280  47.700  41.397  1.00  0.00     0.061 C 
ATOM     15  C   UNL     1      91.193  48.577  43.561  1.00  0.00     0.061 C 
ATOM     16  C   UNL     1      90.413  50.148  41.809  1.00  0.00     0.021 C 
ATOM     17  C   UNL     1      89.456  51.063  41.639  1.00  0.00     0.015 C 
ENDROOT
BRANCH   1  18
ATOM     18  C   UNL     1      86.337  47.916  43.988  1.00  0.00     0.070 C 
BRANCH  18  19
ATOM     19  C   UNL     1      86.021  46.786  43.042  1.00  0.00    -0.023 C 
ATOM     20  C   UNL     1      85.370  45.635  43.297  1.00  0.00    -0.080 C 
ATOM     21  C   UNL     1      84.796  45.233  44.629  1.00  0.00     0.039 C 
ATOM     22  C   UNL     1      85.158  44.619  42.206  1.00  0.00     0.039 C 
ENDBRANCH  18  19
ENDBRANCH   1  18
BRANCH   4  23
ATOM     23  C   UNL     1      81.884  49.786  43.188  1.00  0.00    -0.007 A 
ATOM     24  C   UNL     1      81.837  48.611  43.957  1.00  0.00     0.011 A 
ATOM     25  C   UNL     1      80.686  50.474  42.933  1.00  0.00     0.011 A 
ATOM     26  C   UNL     1      80.623  48.141  44.467  1.00  0.00     0.046 A 
ATOM     27  C   UNL     1      79.475  50.005  43.443  1.00  0.00     0.046 A 
ATOM     28  C   UNL     1      79.453  48.844  44.206  1.00  0.00     0.115 A 
BRANCH  28  29
ATOM     29  O   UNL     1      78.248  48.422  44.685  1.00  0.00    -0.508 OA
ATOM     30  H   UNL     1      77.976  47.632  44.190  1.00  0.00     0.293 HD
ENDBRANCH  28  29
ENDBRANCH   4  23
BRANCH   9  31
ATOM     31  O   UNL     1      87.281  52.789  41.162  1.00  0.00    -0.506 OA
ATOM     32  H   UNL     1      87.888  53.343  41.703  1.00  0.00     0.293 HD
ENDBRANCH   9  31
TORSDOF 5
ENDMDL
MODEL 3
REMARK VINA RESULT:    -9.769      3.628      6.910
REMARK INTER + INTRA:         -12.967
REMARK INTER:                 -11.974
REMARK INTRA:                  -0.994
REMARK UNBOUND:                -0.914
REMARK SMILES CC(C)=CCc1c2c(c(O)c3c1OC(c1ccc(O)cc1)CC3=O)C=CC(C)(C)O2
REMARK SMILES IDX 6 1 12 2 13 3 14 4 22 5 23 6 24 7 11 8 9 9 8 10 7 11 30 12
REMARK SMILES IDX 27 13 28 14 29 15 26 16 25 17 5 18 4 19 2 20 1 21 3 22 15 23
REMARK SMILES IDX 16 24 21 25 17 26 20 27 18 28 19 29 10 31
REMARK H PARENT 19 30 10 32
ROOT
ATOM      1  C   UNL     1      86.575  48.233  43.059  1.00  0.00     0.042 A 
ATOM      2  C   UNL     1      85.569  47.259  42.946  1.00  0.00     0.142 A 
ATOM      3  O   UNL     1      84.283  47.643  43.239  1.00  0.00    -0.484 OA
ATOM      4  C   UNL     1      83.462  46.560  43.696  1.00  0.00     0.211 C 
ATOM      5  C   UNL     1      83.381  45.480  42.630  1.00  0.00     0.131 C 
ATOM      6  C   UNL     1      84.775  44.992  42.362  1.00  0.00     0.174 C 
ATOM      7  O   UNL     1      85.014  43.849  41.978  1.00  0.00    -0.294 OA
ATOM      8  C   UNL     1      85.879  45.963  42.521  1.00  0.00     0.103 A 
ATOM      9  C   UNL     1      87.204  45.614  42.231  1.00  0.00     0.141 A 
ATOM     10  C   UNL     1      88.229  46.563  42.366  1.00  0.00     0.060 A 
ATOM     11  C   UNL     1      87.908  47.864  42.782  1.00  0.00     0.138 A 
ATOM     12  O   UNL     1      88.852  48.849  42.922  1.00  0.00    -0.483 OA
ATOM     13  C   UNL     1      90.251  48.506  42.879  1.00  0.00     0.122 C 
ATOM     14  C   UNL     1      90.783  48.608  44.313  1.00  0.00     0.061 C 
ATOM     15  C   UNL     1      90.916  49.576  42.005  1.00  0.00     0.061 C 
ATOM     16  C   UNL     1      90.560  47.143  42.317  1.00  0.00     0.021 C 
ATOM     17  C   UNL     1      89.618  46.230  42.069  1.00  0.00     0.015 C 
ENDROOT
BRANCH   1  18
ATOM     18  C   UNL     1      86.240  49.635  43.531  1.00  0.00     0.070 C 
BRANCH  18  19
ATOM     19  C   UNL     1      86.184  49.725  45.035  1.00  0.00    -0.023 C 
ATOM     20  C   UNL     1      86.856  50.558  45.852  1.00  0.00    -0.080 C 
ATOM     21  C   UNL     1      87.831  51.617  45.411  1.00  0.00     0.039 C 
ATOM     22  C   UNL     1      86.664  50.486  47.344  1.00  0.00     0.039 C 
ENDBRANCH  18  19
ENDBRANCH   1  18
BRANCH   4  23
ATOM     23  C   UNL     1      82.083  47.098  44.028  1.00  0.00    -0.007 A 
ATOM     24  C   UNL     1      81.102  46.243  44.554  1.00  0.00     0.011 A 
ATOM     25  C   UNL     1      81.751  48.444  43.796  1.00  0.00     0.011 A 
ATOM     26  C   UNL     1      79.823  46.721  44.851  1.00  0.00     0.046 A 
ATOM     27  C   UNL     1      80.474  48.921  44.093  1.00  0.00     0.046 A 
ATOM     28  C   UNL     1      79.521  48.058  44.618  1.00  0.00     0.115 A 
BRANCH  28  29
ATOM     29  O   UNL     1      78.287  48.567  44.895  1.00  0.00    -0.508 OA
ATOM     30  H   UNL     1      77.676  48.303  44.188  1.00  0.00     0.293 HD
ENDBRANCH  28  29
ENDBRANCH   4  23
BRANCH   9  31
ATOM     31  O   UNL     1      87.538  44.347  41.810  1.00  0.00    -0.506 OA
ATOM     32  H   UNL     1      88.386  44.086  42.237  1.00  0.00     0.293 HD
ENDBRANCH   9  31
TORSDOF 5
ENDMDL
MODEL 4
REMARK VINA RESULT:    -9.551      2.209      8.284
REMARK INTER + INTRA:         -12.699
REMARK INTER:                 -11.841
REMARK INTRA:                  -0.857
REMARK UNBOUND:                -0.914
REMARK SMILES CC(C)=CCc1c2c(c(O)c3c1OC(c1ccc(O)cc1)CC3=O)C=CC(C)(C)O2
REMARK SMILES IDX 6 1 12 2 13 3 14 4 22 5 23 6 24 7 11 8 9 9 8 10 7 11 30 12
REMARK SMILES IDX 27 13 28 14 29 15 26 16 25 17 5 18 4 19 2 20 1 21 3 22 15 23
REMARK SMILES IDX 16 24 21 25 17 26 20 27 18 28 19 29 10 31
REMARK H PARENT 19 30 10 32
ROOT
ATOM      1  C   UNL     1      86.433  50.444  44.438  1.00  0.00     0.042 A 
ATOM      2  C   UNL     1      85.640  49.353  44.046  1.00  0.00     0.142 A 
ATOM      3  O   UNL     1      86.229  48.111  44.049  1.00  0.00    -0.484 OA
ATOM      4  C   UNL     1      85.635  47.204  43.111  1.00  0.00     0.211 C 
ATOM      5  C   UNL     1      84.163  47.009  43.434  1.00  0.00     0.131 C 
ATOM      6  C   UNL     1      83.491  48.348  43.351  1.00  0.00     0.174 C 
ATOM      7  O   UNL     1      82.305  48.476  43.054  1.00  0.00    -0.294 OA
ATOM      8  C   UNL     1      84.298  49.537  43.699  1.00  0.00     0.103 A 
ATOM      9  C   UNL     1      83.737  50.821  43.711  1.00  0.00     0.141 A 
ATOM     10  C   UNL     1      84.518  51.929  44.070  1.00  0.00     0.060 A 
ATOM     11  C   UNL     1      85.861  51.734  44.428  1.00  0.00     0.138 A 
ATOM     12  O   UNL     1      86.683  52.765  44.805  1.00  0.00    -0.483 OA
ATOM     13  C   UNL     1      86.254  54.126  44.609  1.00  0.00     0.122 C 
ATOM     14  C   UNL     1      87.063  54.689  43.435  1.00  0.00     0.061 C 
ATOM     15  C   UNL     1      86.626  54.871  45.896  1.00  0.00     0.061 C 
ATOM     16  C   UNL     1      84.781  54.301  44.343  1.00  0.00     0.021 C 
ATOM     17  C   UNL     1      83.961  53.277  44.095  1.00  0.00     0.015 C 
ENDROOT
BRANCH   1  18
ATOM     18  C   UNL     1      87.892  50.245  44.802  1.00  0.00     0.070 C 
BRANCH  18  19
ATOM     19  C   UNL     1      88.683  49.658  43.661  1.00  0.00    -0.023 C 
ATOM     20  C   UNL     1      89.084  50.254  42.522  1.00  0.00    -0.080 C 
ATOM     21  C   UNL     1      88.821  51.688  42.148  1.00  0.00     0.039 C 
ATOM     22  C   UNL     1      89.868  49.485  41.492  1.00  0.00     0.039 C 
ENDBRANCH  18  19
ENDBRANCH   1  18
BRANCH   4  23
ATOM     23  C   UNL     1      86.382  45.885  43.167  1.00  0.00    -0.007 A 
ATOM     24  C   UNL     1      87.594  45.733  42.473  1.00  0.00     0.011 A 
ATOM     25  C   UNL     1      85.874  44.790  43.887  1.00  0.00     0.011 A 
ATOM     26  C   UNL     1      88.286  44.519  42.505  1.00  0.00     0.046 A 
ATOM     27  C   UNL     1      86.567  43.578  43.918  1.00  0.00     0.046 A 
ATOM     28  C   UNL     1      87.766  43.453  43.229  1.00  0.00     0.115 A 
BRANCH  28  29
ATOM     29  O   UNL     1      88.409  42.252  43.288  1.00  0.00    -0.508 OA
ATOM     30  H   UNL     1      88.331  41.901  44.190  1.00  0.00     0.293 HD
ENDBRANCH  28  29
ENDBRANCH   4  23
BRANCH   9  31
ATOM     31  O   UNL     1      82.419  51.032  43.375  1.00  0.00    -0.506 OA
ATOM     32  H   UNL     1      82.365  51.221  42.411  1.00  0.00     0.293 HD
ENDBRANCH   9  31
TORSDOF 5
ENDMDL
MODEL 5
REMARK VINA RESULT:    -9.461      2.538      8.285
REMARK INTER + INTRA:         -12.587
REMARK INTER:                 -11.503
REMARK INTRA:                  -1.084
REMARK UNBOUND:                -0.914
REMARK SMILES CC(C)=CCc1c2c(c(O)c3c1OC(c1ccc(O)cc1)CC3=O)C=CC(C)(C)O2
REMARK SMILES IDX 6 1 12 2 13 3 14 4 22 5 23 6 24 7 11 8 9 9 8 10 7 11 30 12
REMARK SMILES IDX 27 13 28 14 29 15 26 16 25 17 5 18 4 19 2 20 1 21 3 22 15 23
REMARK SMILES IDX 16 24 21 25 17 26 20 27 18 28 19 29 10 31
REMARK H PARENT 19 30 10 32
ROOT
ATOM      1  C   UNL     1      84.374  51.131  42.502  1.00  0.00     0.042 A 
ATOM      2  C   UNL     1      83.703  49.936  42.815  1.00  0.00     0.142 A 
ATOM      3  O   UNL     1      84.474  48.856  43.170  1.00  0.00    -0.484 OA
ATOM      4  C   UNL     1      83.849  47.599  42.878  1.00  0.00     0.211 C 
ATOM      5  C   UNL     1      82.532  47.484  43.628  1.00  0.00     0.131 C 
ATOM      6  C   UNL     1      81.649  48.613  43.185  1.00  0.00     0.174 C 
ATOM      7  O   UNL     1      80.422  48.534  43.185  1.00  0.00    -0.294 OA
ATOM      8  C   UNL     1      82.307  49.877  42.790  1.00  0.00     0.103 A 
ATOM      9  C   UNL     1      81.560  51.005  42.422  1.00  0.00     0.141 A 
ATOM     10  C   UNL     1      82.209  52.199  42.077  1.00  0.00     0.060 A 
ATOM     11  C   UNL     1      83.611  52.254  42.116  1.00  0.00     0.138 A 
ATOM     12  O   UNL     1      84.315  53.389  41.807  1.00  0.00    -0.483 OA
ATOM     13  C   UNL     1      83.638  54.502  41.192  1.00  0.00     0.122 C 
ATOM     14  C   UNL     1      84.075  54.539  39.723  1.00  0.00     0.061 C 
ATOM     15  C   UNL     1      84.151  55.754  41.914  1.00  0.00     0.061 C 
ATOM     16  C   UNL     1      82.134  54.462  41.276  1.00  0.00     0.021 C 
ATOM     17  C   UNL     1      81.458  53.390  41.694  1.00  0.00     0.015 C 
ENDROOT
BRANCH   1  18
ATOM     18  C   UNL     1      85.889  51.191  42.517  1.00  0.00     0.070 C 
BRANCH  18  19
ATOM     19  C   UNL     1      86.425  51.575  43.873  1.00  0.00    -0.023 C 
ATOM     20  C   UNL     1      87.325  50.925  44.635  1.00  0.00    -0.080 C 
ATOM     21  C   UNL     1      88.014  49.638  44.267  1.00  0.00     0.039 C 
ATOM     22  C   UNL     1      87.729  51.475  45.978  1.00  0.00     0.039 C 
ENDBRANCH  18  19
ENDBRANCH   1  18
BRANCH   4  23
ATOM     23  C   UNL     1      84.795  46.480  43.271  1.00  0.00    -0.007 A 
ATOM     24  C   UNL     1      86.144  46.533  42.884  1.00  0.00     0.011 A 
ATOM     25  C   UNL     1      84.345  45.367  44.000  1.00  0.00     0.011 A 
ATOM     26  C   UNL     1      87.025  45.503  43.226  1.00  0.00     0.046 A 
ATOM     27  C   UNL     1      85.225  44.339  44.342  1.00  0.00     0.046 A 
ATOM     28  C   UNL     1      86.556  44.414  43.954  1.00  0.00     0.115 A 
BRANCH  28  29
ATOM     29  O   UNL     1      87.381  43.389  44.310  1.00  0.00    -0.508 OA
ATOM     30  H   UNL     1      87.236  42.648  43.700  1.00  0.00     0.293 HD
ENDBRANCH  28  29
ENDBRANCH   4  23
BRANCH   9  31
ATOM     31  O   UNL     1      80.184  50.976  42.390  1.00  0.00    -0.506 OA
ATOM     32  H   UNL     1      79.895  50.700  41.490  1.00  0.00     0.293 HD
ENDBRANCH   9  31
TORSDOF 5
ENDMDL
MODEL 6
REMARK VINA RESULT:    -9.299      3.407      7.595
REMARK INTER + INTRA:         -12.388
REMARK INTER:                 -12.316
REMARK INTRA:                  -0.071
REMARK UNBOUND:                -0.914
REMARK SMILES CC(C)=CCc1c2c(c(O)c3c1OC(c1ccc(O)cc1)CC3=O)C=CC(C)(C)O2
REMARK SMILES IDX 6 1 12 2 13 3 14 4 22 5 23 6 24 7 11 8 9 9 8 10 7 11 30 12
REMARK SMILES IDX 27 13 28 14 29 15 26 16 25 17 5 18 4 19 2 20 1 21 3 22 15 23
REMARK SMILES IDX 16 24 21 25 17 26 20 27 18 28 19 29 10 31
REMARK H PARENT 19 30 10 32
ROOT
ATOM      1  C   UNL     1      86.255  53.631  44.511  1.00  0.00     0.042 A 
ATOM      2  C   UNL     1      86.638  53.016  43.307  1.00  0.00     0.142 A 
ATOM      3  O   UNL     1      87.391  51.870  43.396  1.00  0.00    -0.484 OA
ATOM      4  C   UNL     1      88.229  51.657  42.252  1.00  0.00     0.211 C 
ATOM      5  C   UNL     1      87.379  51.546  40.997  1.00  0.00     0.131 C 
ATOM      6  C   UNL     1      86.614  52.828  40.843  1.00  0.00     0.174 C 
ATOM      7  O   UNL     1      86.262  53.263  39.748  1.00  0.00    -0.294 OA
ATOM      8  C   UNL     1      86.234  53.546  42.078  1.00  0.00     0.103 A 
ATOM      9  C   UNL     1      85.465  54.717  42.034  1.00  0.00     0.141 A 
ATOM     10  C   UNL     1      85.096  55.364  43.223  1.00  0.00     0.060 A 
ATOM     11  C   UNL     1      85.496  54.819  44.453  1.00  0.00     0.138 A 
ATOM     12  O   UNL     1      85.162  55.385  45.656  1.00  0.00    -0.483 OA
ATOM     13  C   UNL     1      84.588  56.706  45.686  1.00  0.00     0.122 C 
ATOM     14  C   UNL     1      85.672  57.656  46.208  1.00  0.00     0.061 C 
ATOM     15  C   UNL     1      83.434  56.638  46.694  1.00  0.00     0.061 C 
ATOM     16  C   UNL     1      84.064  57.208  44.365  1.00  0.00     0.021 C 
ATOM     17  C   UNL     1      84.293  56.582  43.209  1.00  0.00     0.015 C 
ENDROOT
BRANCH   1  18
ATOM     18  C   UNL     1      86.704  53.062  45.844  1.00  0.00     0.070 C 
BRANCH  18  19
ATOM     19  C   UNL     1      85.651  53.226  46.911  1.00  0.00    -0.023 C 
ATOM     20  C   UNL     1      85.494  52.525  48.050  1.00  0.00    -0.080 C 
ATOM     21  C   UNL     1      86.378  51.398  48.511  1.00  0.00     0.039 C 
ATOM     22  C   UNL     1      84.363  52.842  48.992  1.00  0.00     0.039 C 
ENDBRANCH  18  19
ENDBRANCH   1  18
BRANCH   4  23
ATOM     23  C   UNL     1      89.041  50.395  42.470  1.00  0.00    -0.007 A 
ATOM     24  C   UNL     1      89.845  49.889  41.435  1.00  0.00     0.011 A 
ATOM     25  C   UNL     1      88.991  49.697  43.688  1.00  0.00     0.011 A 
ATOM     26  C   UNL     1      90.588  48.720  41.616  1.00  0.00     0.046 A 
ATOM     27  C   UNL     1      89.733  48.529  43.868  1.00  0.00     0.046 A 
ATOM     28  C   UNL     1      90.526  48.051  42.834  1.00  0.00     0.115 A 
BRANCH  28  29
ATOM     29  O   UNL     1      91.236  46.907  43.054  1.00  0.00    -0.508 OA
ATOM     30  H   UNL     1      92.149  47.046  42.754  1.00  0.00     0.293 HD
ENDBRANCH  28  29
ENDBRANCH   4  23
BRANCH   9  31
ATOM     31  O   UNL     1      85.052  55.261  40.839  1.00  0.00    -0.506 OA
ATOM     32  H   UNL     1      84.230  54.802  40.551  1.00  0.00     0.293 HD
ENDBRANCH   9  31
TORSDOF 5
ENDMDL
MODEL 7
REMARK VINA RESULT:    -9.208      2.427      8.139
REMARK INTER + INTRA:         -12.275
REMARK INTER:                 -11.267
REMARK INTRA:                  -1.008
REMARK UNBOUND:                -0.914
REMARK SMILES CC(C)=CCc1c2c(c(O)c3c1OC(c1ccc(O)cc1)CC3=O)C=CC(C)(C)O2
REMARK SMILES IDX 6 1 12 2 13 3 14 4 22 5 23 6 24 7 11 8 9 9 8 10 7 11 30 12
REMARK SMILES IDX 27 13 28 14 29 15 26 16 25 17 5 18 4 19 2 20 1 21 3 22 15 23
REMARK SMILES IDX 16 24 21 25 17 26 20 27 18 28 19 29 10 31
REMARK H PARENT 19 30 10 32
ROOT
ATOM      1  C   UNL     1      86.502  53.594  44.187  1.00  0.00     0.042 A 
ATOM      2  C   UNL     1      86.593  52.410  44.939  1.00  0.00     0.142 A 
ATOM      3  O   UNL     1      86.900  51.255  44.262  1.00  0.00    -0.484 OA
ATOM      4  C   UNL     1      86.392  50.076  44.901  1.00  0.00     0.211 C 
ATOM      5  C   UNL     1      86.973  49.950  46.300  1.00  0.00     0.131 C 
ATOM      6  C   UNL     1      86.572  51.170  47.076  1.00  0.00     0.174 C 
ATOM      7  O   UNL     1      86.426  51.160  48.297  1.00  0.00    -0.294 OA
ATOM      8  C   UNL     1      86.406  52.432  46.324  1.00  0.00     0.103 A 
ATOM      9  C   UNL     1      86.096  53.634  46.975  1.00  0.00     0.141 A 
ATOM     10  C   UNL     1      85.970  54.822  46.240  1.00  0.00     0.060 A 
ATOM     11  C   UNL     1      86.171  54.794  44.851  1.00  0.00     0.138 A 
ATOM     12  O   UNL     1      86.080  55.915  44.069  1.00  0.00    -0.483 OA
ATOM     13  C   UNL     1      85.531  57.128  44.622  1.00  0.00     0.122 C 
ATOM     14  C   UNL     1      84.135  57.307  44.015  1.00  0.00     0.061 C 
ATOM     15  C   UNL     1      86.450  58.258  44.144  1.00  0.00     0.061 C 
ATOM     16  C   UNL     1      85.442  57.162  46.125  1.00  0.00     0.021 C 
ATOM     17  C   UNL     1      85.651  56.088  46.890  1.00  0.00     0.015 C 
ENDROOT
BRANCH   1  18
ATOM     18  C   UNL     1      86.693  53.567  42.682  1.00  0.00     0.070 C 
BRANCH  18  19
ATOM     19  C   UNL     1      88.117  53.255  42.300  1.00  0.00    -0.023 C 
ATOM     20  C   UNL     1      88.569  52.333  41.428  1.00  0.00    -0.080 C 
ATOM     21  C   UNL     1      87.709  51.398  40.621  1.00  0.00     0.039 C 
ATOM     22  C   UNL     1      90.047  52.170  41.188  1.00  0.00     0.039 C 
ENDBRANCH  18  19
ENDBRANCH   1  18
BRANCH   4  23
ATOM     23  C   UNL     1      86.751  48.869  44.055  1.00  0.00    -0.007 A 
ATOM     24  C   UNL     1      87.898  48.894  43.244  1.00  0.00     0.011 A 
ATOM     25  C   UNL     1      85.941  47.721  44.043  1.00  0.00     0.011 A 
ATOM     26  C   UNL     1      88.233  47.795  42.449  1.00  0.00     0.046 A 
ATOM     27  C   UNL     1      86.277  46.623  43.249  1.00  0.00     0.046 A 
ATOM     28  C   UNL     1      87.419  46.668  42.460  1.00  0.00     0.115 A 
BRANCH  28  29
ATOM     29  O   UNL     1      87.710  45.574  41.701  1.00  0.00    -0.508 OA
ATOM     30  H   UNL     1      87.936  44.837  42.291  1.00  0.00     0.293 HD
ENDBRANCH  28  29
ENDBRANCH   4  23
BRANCH   9  31
ATOM     31  O   UNL     1      85.907  53.685  48.338  1.00  0.00    -0.506 OA
ATOM     32  H   UNL     1      85.024  54.079  48.519  1.00  0.00     0.293 HD
ENDBRANCH   9  31
TORSDOF 5
ENDMDL
MODEL 8
REMARK VINA RESULT:    -9.193      1.576      7.091
REMARK INTER + INTRA:         -12.256
REMARK INTER:                 -11.213
REMARK INTRA:                  -1.043
REMARK UNBOUND:                -0.914
REMARK SMILES CC(C)=CCc1c2c(c(O)c3c1OC(c1ccc(O)cc1)CC3=O)C=CC(C)(C)O2
REMARK SMILES IDX 6 1 12 2 13 3 14 4 22 5 23 6 24 7 11 8 9 9 8 10 7 11 30 12
REMARK SMILES IDX 27 13 28 14 29 15 26 16 25 17 5 18 4 19 2 20 1 21 3 22 15 23
REMARK SMILES IDX 16 24 21 25 17 26 20 27 18 28 19 29 10 31
REMARK H PARENT 19 30 10 32
ROOT
ATOM      1  C   UNL     1      85.822  51.744  43.878  1.00  0.00     0.042 A 
ATOM      2  C   UNL     1      86.684  51.019  43.038  1.00  0.00     0.142 A 
ATOM      3  O   UNL     1      86.467  49.667  42.926  1.00  0.00    -0.484 OA
ATOM      4  C   UNL     1      87.654  48.931  42.602  1.00  0.00     0.211 C 
ATOM      5  C   UNL     1      88.220  49.410  41.276  1.00  0.00     0.131 C 
ATOM      6  C   UNL     1      88.540  50.870  41.412  1.00  0.00     0.174 C 
ATOM      7  O   UNL     1      89.431  51.416  40.764  1.00  0.00    -0.294 OA
ATOM      8  C   UNL     1      87.698  51.669  42.328  1.00  0.00     0.103 A 
ATOM      9  C   UNL     1      87.884  53.051  42.470  1.00  0.00     0.141 A 
ATOM     10  C   UNL     1      87.053  53.790  43.326  1.00  0.00     0.060 A 
ATOM     11  C   UNL     1      86.031  53.131  44.026  1.00  0.00     0.138 A 
ATOM     12  O   UNL     1      85.170  53.787  44.868  1.00  0.00    -0.483 OA
ATOM     13  C   UNL     1      85.447  55.148  45.251  1.00  0.00     0.122 C 
ATOM     14  C   UNL     1      85.920  55.119  46.709  1.00  0.00     0.061 C 
ATOM     15  C   UNL     1      84.108  55.890  45.157  1.00  0.00     0.061 C 
ATOM     16  C   UNL     1      86.468  55.858  44.399  1.00  0.00     0.021 C 
ATOM     17  C   UNL     1      87.220  55.230  43.492  1.00  0.00     0.015 C 
ENDROOT
BRANCH   1  18
ATOM     18  C   UNL     1      84.730  51.035  44.657  1.00  0.00     0.070 C 
BRANCH  18  19
ATOM     19  C   UNL     1      83.408  51.070  43.933  1.00  0.00    -0.023 C 
ATOM     20  C   UNL     1      82.668  50.036  43.487  1.00  0.00    -0.080 C 
ATOM     21  C   UNL     1      83.021  48.581  43.635  1.00  0.00     0.039 C 
ATOM     22  C   UNL     1      81.364  50.282  42.774  1.00  0.00     0.039 C 
ENDBRANCH  18  19
ENDBRANCH   1  18
BRANCH   4  23
ATOM     23  C   UNL     1      87.312  47.454  42.543  1.00  0.00    -0.007 A 
ATOM     24  C   UNL     1      86.057  47.005  42.984  1.00  0.00     0.011 A 
ATOM     25  C   UNL     1      88.240  46.509  42.074  1.00  0.00     0.011 A 
ATOM     26  C   UNL     1      85.733  45.646  42.949  1.00  0.00     0.046 A 
ATOM     27  C   UNL     1      87.916  45.152  42.039  1.00  0.00     0.046 A 
ATOM     28  C   UNL     1      86.667  44.731  42.475  1.00  0.00     0.115 A 
BRANCH  28  29
ATOM     29  O   UNL     1      86.391  43.397  42.422  1.00  0.00    -0.508 OA
ATOM     30  H   UNL     1      85.441  43.282  42.256  1.00  0.00     0.293 HD
ENDBRANCH  28  29
ENDBRANCH   4  23
BRANCH   9  31
ATOM     31  O   UNL     1      88.872  53.718  41.783  1.00  0.00    -0.506 OA
ATOM     32  H   UNL     1      88.973  54.618  42.169  1.00  0.00     0.293 HD
ENDBRANCH   9  31
TORSDOF 5
ENDMDL
MODEL 9
REMARK VINA RESULT:    -9.105      1.263      2.030
REMARK INTER + INTRA:         -12.148
REMARK INTER:                 -11.235
REMARK INTRA:                  -0.914
REMARK UNBOUND:                -0.914
REMARK SMILES CC(C)=CCc1c2c(c(O)c3c1OC(c1ccc(O)cc1)CC3=O)C=CC(C)(C)O2
REMARK SMILES IDX 6 1 12 2 13 3 14 4 22 5 23 6 24 7 11 8 9 9 8 10 7 11 30 12
REMARK SMILES IDX 27 13 28 14 29 15 26 16 25 17 5 18 4 19 2 20 1 21 3 22 15 23
REMARK SMILES IDX 16 24 21 25 17 26 20 27 18 28 19 29 10 31
REMARK H PARENT 19 30 10 32
ROOT
ATOM      1  C   UNL     1      86.142  50.194  43.534  1.00  0.00     0.042 A 
ATOM      2  C   UNL     1      86.832  51.302  43.015  1.00  0.00     0.142 A 
ATOM      3  O   UNL     1      86.428  52.549  43.429  1.00  0.00    -0.484 OA
ATOM      4  C   UNL     1      86.703  53.577  42.469  1.00  0.00     0.211 C 
ATOM      5  C   UNL     1      88.197  53.652  42.199  1.00  0.00     0.131 C 
ATOM      6  C   UNL     1      88.636  52.320  41.666  1.00  0.00     0.174 C 
ATOM      7  O   UNL     1      89.592  52.194  40.903  1.00  0.00    -0.294 OA
ATOM      8  C   UNL     1      87.906  51.123  42.137  1.00  0.00     0.103 A 
ATOM      9  C   UNL     1      88.286  49.834  41.742  1.00  0.00     0.141 A 
ATOM     10  C   UNL     1      87.592  48.715  42.225  1.00  0.00     0.060 A 
ATOM     11  C   UNL     1      86.523  48.902  43.115  1.00  0.00     0.138 A 
ATOM     12  O   UNL     1      85.808  47.858  43.641  1.00  0.00    -0.483 OA
ATOM     13  C   UNL     1      85.978  46.533  43.101  1.00  0.00     0.122 C 
ATOM     14  C   UNL     1      84.721  46.215  42.283  1.00  0.00     0.061 C 
ATOM     15  C   UNL     1      86.058  45.595  44.311  1.00  0.00     0.061 C 
ATOM     16  C   UNL     1      87.204  46.344  42.244  1.00  0.00     0.021 C 
ATOM     17  C   UNL     1      87.967  47.360  41.835  1.00  0.00     0.015 C 
ENDROOT
BRANCH   1  18
ATOM     18  C   UNL     1      84.970  50.389  44.477  1.00  0.00     0.070 C 
BRANCH  18  19
ATOM     19  C   UNL     1      85.418  50.798  45.857  1.00  0.00    -0.023 C 
ATOM     20  C   UNL     1      85.242  51.978  46.483  1.00  0.00    -0.080 C 
ATOM     21  C   UNL     1      84.524  53.171  45.911  1.00  0.00     0.039 C 
ATOM     22  C   UNL     1      85.777  52.193  47.874  1.00  0.00     0.039 C 
ENDBRANCH  18  19
ENDBRANCH   1  18
BRANCH   4  23
ATOM     23  C   UNL     1      86.183  54.897  43.005  1.00  0.00    -0.007 A 
ATOM     24  C   UNL     1      86.922  55.606  43.966  1.00  0.00     0.011 A 
ATOM     25  C   UNL     1      84.953  55.424  42.576  1.00  0.00     0.011 A 
ATOM     26  C   UNL     1      86.449  56.816  44.480  1.00  0.00     0.046 A 
ATOM     27  C   UNL     1      84.481  56.634  43.089  1.00  0.00     0.046 A 
ATOM     28  C   UNL     1      85.232  57.320  44.035  1.00  0.00     0.115 A 
BRANCH  28  29
ATOM     29  O   UNL     1      84.734  58.498  44.508  1.00  0.00    -0.508 OA
ATOM     30  H   UNL     1      83.858  58.333  44.892  1.00  0.00     0.293 HD
ENDBRANCH  28  29
ENDBRANCH   4  23
BRANCH   9  31
ATOM     31  O   UNL     1      89.339  49.628  40.880  1.00  0.00    -0.506 OA
ATOM     32  H   UNL     1      89.548  48.666  40.861  1.00  0.00     0.293 HD
ENDBRANCH   9  31
TORSDOF 5
ENDMDL
