MODEL 1
REMARK VINA RESULT:    -6.121      0.000      0.000
REMARK INTER + INTRA:          -7.052
REMARK INTER:                  -6.951
REMARK INTRA:                  -0.101
REMARK UNBOUND:                 0.322
REMARK SMILES CC(=O)O[C@H]1CC[C@@]2(C)C(CC[C@@]3(C)C4=CCC5(C(=O)O)CCC(C)(C)CC5[C@]4(C)CCC23)C1(C)C
REMARK SMILES IDX 5 1 6 2 7 3 8 4 10 5 34 6 35 7 36 8 11 9 12 10 13 11 33 12
REMARK SMILES IDX 32 13 31 14 29 15 15 16 16 17 17 18 18 19 28 20 27 21 24 22
REMARK SMILES IDX 25 23 26 24 23 25 22 26 30 27 14 28 9 29 4 30 2 31 3 32 1 33
REMARK SMILES IDX 19 34 20 35 21 36
REMARK H PARENT 21 37
ROOT
ATOM      1  C   UNL     1      85.538  56.371  43.719  1.00  0.00     0.182 C 
ATOM      2  C   UNL     1      86.855  55.616  43.926  1.00  0.00     0.046 C 
ATOM      3  C   UNL     1      86.652  54.373  44.789  1.00  0.00     0.011 C 
ATOM      4  C   UNL     1      85.493  53.436  44.289  1.00  0.00    -0.025 C 
ATOM      5  C   UNL     1      84.859  53.976  42.962  1.00  0.00     0.005 C 
ATOM      6  C   UNL     1      84.477  55.511  42.949  1.00  0.00     0.005 C 
ATOM      7  C   UNL     1      84.512  55.990  41.468  1.00  0.00     0.015 C 
ATOM      8  C   UNL     1      83.043  55.784  43.452  1.00  0.00     0.015 C 
ATOM      9  C   UNL     1      83.736  53.041  42.463  1.00  0.00     0.006 C 
ATOM     10  C   UNL     1      84.237  51.622  42.193  1.00  0.00     0.012 C 
ATOM     11  C   UNL     1      84.990  50.932  43.362  1.00  0.00    -0.008 C 
ATOM     12  C   UNL     1      86.034  51.946  44.008  1.00  0.00     0.005 C 
ATOM     13  C   UNL     1      87.319  51.951  43.144  1.00  0.00     0.006 C 
ATOM     14  C   UNL     1      87.953  50.571  43.164  1.00  0.00     0.012 C 
ATOM     15  C   UNL     1      87.118  49.512  42.419  1.00  0.00    -0.007 C 
ATOM     16  C   UNL     1      85.624  49.610  42.786  1.00  0.00    -0.062 C 
ATOM     17  C   UNL     1      84.859  48.545  42.458  1.00  0.00    -0.025 C 
ATOM     18  C   UNL     1      85.430  47.244  41.985  1.00  0.00     0.046 C 
ATOM     19  C   UNL     1      86.707  46.888  42.767  1.00  0.00     0.075 C 
ATOM     20  C   UNL     1      87.732  48.082  42.782  1.00  0.00     0.017 C 
ATOM     21  C   UNL     1      89.008  47.747  41.969  1.00  0.00     0.012 C 
ATOM     22  C   UNL     1      89.725  46.454  42.432  1.00  0.00    -0.035 C 
ATOM     23  C   UNL     1      90.682  46.006  41.308  1.00  0.00     0.011 C 
ATOM     24  C   UNL     1      90.574  46.730  43.688  1.00  0.00     0.011 C 
ATOM     25  C   UNL     1      88.717  45.321  42.734  1.00  0.00     0.007 C 
ATOM     26  C   UNL     1      87.331  45.604  42.160  1.00  0.00     0.020 C 
ATOM     27  C   UNL     1      87.247  49.804  40.894  1.00  0.00     0.016 C 
ATOM     28  C   UNL     1      83.973  50.498  44.458  1.00  0.00     0.016 C 
ATOM     29  C   UNL     1      84.473  53.442  45.461  1.00  0.00     0.012 C 
ENDROOT
BRANCH   1  30
ATOM     30  O   UNL     1      85.061  56.745  45.031  1.00  0.00    -0.462 OA
BRANCH  30  31
ATOM     31  C   UNL     1      85.043  58.070  45.339  1.00  0.00     0.302 C 
ATOM     32  O   UNL     1      85.652  58.953  44.754  1.00  0.00    -0.253 OA
ATOM     33  C   UNL     1      84.140  58.301  46.512  1.00  0.00     0.139 C 
ENDBRANCH  30  31
ENDBRANCH   1  30
BRANCH  19  34
ATOM     34  C   UNL     1      86.283  46.553  44.214  1.00  0.00     0.310 C 
ATOM     35  O   UNL     1      85.935  45.471  44.660  1.00  0.00    -0.252 OA
BRANCH  34  36
ATOM     36  O   UNL     1      86.281  47.623  45.039  1.00  0.00    -0.481 OA
ATOM     37  H   UNL     1      86.727  48.318  44.509  1.00  0.00     0.296 HD
ENDBRANCH  34  36
ENDBRANCH  19  34
TORSDOF 4
ENDMDL
MODEL 2
REMARK VINA RESULT:    -6.095      1.898      3.697
REMARK INTER + INTRA:          -7.020
REMARK INTER:                  -7.256
REMARK INTRA:                   0.236
REMARK UNBOUND:                 0.322
REMARK SMILES CC(=O)O[C@H]1CC[C@@]2(C)C(CC[C@@]3(C)C4=CCC5(C(=O)O)CCC(C)(C)CC5[C@]4(C)CCC23)C1(C)C
REMARK SMILES IDX 5 1 6 2 7 3 8 4 10 5 34 6 35 7 36 8 11 9 12 10 13 11 33 12
REMARK SMILES IDX 32 13 31 14 29 15 15 16 16 17 17 18 18 19 28 20 27 21 24 22
REMARK SMILES IDX 25 23 26 24 23 25 22 26 30 27 14 28 9 29 4 30 2 31 3 32 1 33
REMARK SMILES IDX 19 34 20 35 21 36
REMARK H PARENT 21 37
ROOT
ATOM      1  C   UNL     1      84.447  55.984  45.887  1.00  0.00     0.182 C 
ATOM      2  C   UNL     1      83.567  54.835  45.383  1.00  0.00     0.046 C 
ATOM      3  C   UNL     1      84.110  54.249  44.082  1.00  0.00     0.011 C 
ATOM      4  C   UNL     1      85.631  53.857  44.148  1.00  0.00    -0.025 C 
ATOM      5  C   UNL     1      86.218  54.103  45.580  1.00  0.00     0.005 C 
ATOM      6  C   UNL     1      85.901  55.509  46.230  1.00  0.00     0.005 C 
ATOM      7  C   UNL     1      85.953  55.333  47.777  1.00  0.00     0.015 C 
ATOM      8  C   UNL     1      86.952  56.586  45.887  1.00  0.00     0.015 C 
ATOM      9  C   UNL     1      87.706  53.696  45.646  1.00  0.00     0.006 C 
ATOM     10  C   UNL     1      87.924  52.222  45.302  1.00  0.00     0.012 C 
ATOM     11  C   UNL     1      87.326  51.744  43.952  1.00  0.00    -0.008 C 
ATOM     12  C   UNL     1      85.845  52.304  43.784  1.00  0.00     0.005 C 
ATOM     13  C   UNL     1      84.877  51.387  44.572  1.00  0.00     0.006 C 
ATOM     14  C   UNL     1      84.903  49.989  43.979  1.00  0.00     0.012 C 
ATOM     15  C   UNL     1      86.239  49.258  44.218  1.00  0.00    -0.007 C 
ATOM     16  C   UNL     1      87.444  50.173  43.926  1.00  0.00    -0.062 C 
ATOM     17  C   UNL     1      88.639  49.557  43.782  1.00  0.00    -0.025 C 
ATOM     18  C   UNL     1      88.783  48.071  43.672  1.00  0.00     0.046 C 
ATOM     19  C   UNL     1      87.656  47.472  42.811  1.00  0.00     0.075 C 
ATOM     20  C   UNL     1      86.238  47.955  43.293  1.00  0.00     0.017 C 
ATOM     21  C   UNL     1      85.413  46.788  43.892  1.00  0.00     0.012 C 
ATOM     22  C   UNL     1      85.243  45.582  42.933  1.00  0.00    -0.035 C 
ATOM     23  C   UNL     1      84.809  44.361  43.769  1.00  0.00     0.011 C 
ATOM     24  C   UNL     1      84.131  45.867  41.904  1.00  0.00     0.011 C 
ATOM     25  C   UNL     1      86.558  45.258  42.188  1.00  0.00     0.007 C 
ATOM     26  C   UNL     1      87.773  45.926  42.829  1.00  0.00     0.020 C 
ATOM     27  C   UNL     1      86.297  48.871  45.726  1.00  0.00     0.016 C 
ATOM     28  C   UNL     1      88.197  52.276  42.775  1.00  0.00     0.016 C 
ATOM     29  C   UNL     1      86.301  54.773  43.086  1.00  0.00     0.012 C 
ENDROOT
BRANCH   1  30
ATOM     30  O   UNL     1      84.452  56.990  44.848  1.00  0.00    -0.462 OA
BRANCH  30  31
ATOM     31  C   UNL     1      84.751  58.266  45.212  1.00  0.00     0.302 C 
ATOM     32  O   UNL     1      85.493  59.029  44.613  1.00  0.00    -0.253 OA
ATOM     33  C   UNL     1      84.016  58.615  46.470  1.00  0.00     0.139 C 
ENDBRANCH  30  31
ENDBRANCH   1  30
BRANCH  19  34
ATOM     34  C   UNL     1      87.892  47.934  41.356  1.00  0.00     0.310 C 
ATOM     35  O   UNL     1      87.265  48.771  40.727  1.00  0.00    -0.252 OA
BRANCH  34  36
ATOM     36  O   UNL     1      88.901  47.283  40.738  1.00  0.00    -0.481 OA
ATOM     37  H   UNL     1      89.616  47.286  41.409  1.00  0.00     0.296 HD
ENDBRANCH  34  36
ENDBRANCH  19  34
TORSDOF 4
ENDMDL
MODEL 3
REMARK VINA RESULT:    -5.387      1.910      8.999
REMARK INTER + INTRA:          -6.167
REMARK INTER:                  -5.906
REMARK INTRA:                  -0.261
REMARK UNBOUND:                 0.322
REMARK SMILES CC(=O)O[C@H]1CC[C@@]2(C)C(CC[C@@]3(C)C4=CCC5(C(=O)O)CCC(C)(C)CC5[C@]4(C)CCC23)C1(C)C
REMARK SMILES IDX 5 1 6 2 7 3 8 4 10 5 34 6 35 7 36 8 11 9 12 10 13 11 33 12
REMARK SMILES IDX 32 13 31 14 29 15 15 16 16 17 17 18 18 19 28 20 27 21 24 22
REMARK SMILES IDX 25 23 26 24 23 25 22 26 30 27 14 28 9 29 4 30 2 31 3 32 1 33
REMARK SMILES IDX 19 34 20 35 21 36
REMARK H PARENT 21 37
ROOT
ATOM      1  C   UNL     1      88.951  45.831  42.069  1.00  0.00     0.182 C 
ATOM      2  C   UNL     1      87.540  46.241  41.633  1.00  0.00     0.046 C 
ATOM      3  C   UNL     1      86.845  47.068  42.713  1.00  0.00     0.011 C 
ATOM      4  C   UNL     1      87.694  48.287  43.224  1.00  0.00    -0.025 C 
ATOM      5  C   UNL     1      89.046  48.404  42.441  1.00  0.00     0.005 C 
ATOM      6  C   UNL     1      89.884  47.071  42.296  1.00  0.00     0.005 C 
ATOM      7  C   UNL     1      90.759  47.204  41.014  1.00  0.00     0.015 C 
ATOM      8  C   UNL     1      90.868  46.842  43.463  1.00  0.00     0.015 C 
ATOM      9  C   UNL     1      89.867  49.617  42.931  1.00  0.00     0.006 C 
ATOM     10  C   UNL     1      89.117  50.938  42.760  1.00  0.00     0.012 C 
ATOM     11  C   UNL     1      87.698  50.999  43.386  1.00  0.00    -0.008 C 
ATOM     12  C   UNL     1      86.892  49.670  43.037  1.00  0.00     0.005 C 
ATOM     13  C   UNL     1      86.302  49.809  41.612  1.00  0.00     0.006 C 
ATOM     14  C   UNL     1      85.313  50.961  41.578  1.00  0.00     0.012 C 
ATOM     15  C   UNL     1      85.987  52.338  41.739  1.00  0.00    -0.007 C 
ATOM     16  C   UNL     1      87.026  52.330  42.876  1.00  0.00    -0.062 C 
ATOM     17  C   UNL     1      87.433  53.540  43.320  1.00  0.00    -0.025 C 
ATOM     18  C   UNL     1      86.768  54.822  42.923  1.00  0.00     0.046 C 
ATOM     19  C   UNL     1      85.239  54.652  42.863  1.00  0.00     0.075 C 
ATOM     20  C   UNL     1      84.826  53.406  41.994  1.00  0.00     0.017 C 
ATOM     21  C   UNL     1      84.100  53.835  40.693  1.00  0.00     0.012 C 
ATOM     22  C   UNL     1      82.855  54.725  40.934  1.00  0.00    -0.035 C 
ATOM     23  C   UNL     1      82.501  55.425  39.606  1.00  0.00     0.011 C 
ATOM     24  C   UNL     1      81.648  53.860  41.346  1.00  0.00     0.011 C 
ATOM     25  C   UNL     1      83.118  55.789  42.024  1.00  0.00     0.007 C 
ATOM     26  C   UNL     1      84.605  55.961  42.327  1.00  0.00     0.020 C 
ATOM     27  C   UNL     1      86.744  52.645  40.412  1.00  0.00     0.016 C 
ATOM     28  C   UNL     1      87.812  51.122  44.934  1.00  0.00     0.016 C 
ATOM     29  C   UNL     1      87.924  47.980  44.730  1.00  0.00     0.012 C 
ENDROOT
BRANCH   1  30
ATOM     30  O   UNL     1      88.804  45.054  43.279  1.00  0.00    -0.462 OA
BRANCH  30  31
ATOM     31  C   UNL     1      88.280  43.804  43.162  1.00  0.00     0.302 C 
ATOM     32  O   UNL     1      87.529  43.419  42.279  1.00  0.00    -0.253 OA
ATOM     33  C   UNL     1      88.774  42.945  44.285  1.00  0.00     0.139 C 
ENDBRANCH  30  31
ENDBRANCH   1  30
BRANCH  19  34
ATOM     34  C   UNL     1      84.740  54.459  44.312  1.00  0.00     0.310 C 
ATOM     35  O   UNL     1      84.852  55.232  45.251  1.00  0.00    -0.252 OA
BRANCH  34  36
ATOM     36  O   UNL     1      84.146  53.265  44.525  1.00  0.00    -0.481 OA
ATOM     37  H   UNL     1      84.863  52.722  44.915  1.00  0.00     0.296 HD
ENDBRANCH  34  36
ENDBRANCH  19  34
TORSDOF 4
ENDMDL
MODEL 4
REMARK VINA RESULT:    -3.169      2.067      8.853
REMARK INTER + INTRA:          -3.496
REMARK INTER:                  -3.567
REMARK INTRA:                   0.071
REMARK UNBOUND:                 0.322
REMARK SMILES CC(=O)O[C@H]1CC[C@@]2(C)C(CC[C@@]3(C)C4=CCC5(C(=O)O)CCC(C)(C)CC5[C@]4(C)CCC23)C1(C)C
REMARK SMILES IDX 5 1 6 2 7 3 8 4 10 5 34 6 35 7 36 8 11 9 12 10 13 11 33 12
REMARK SMILES IDX 32 13 31 14 29 15 15 16 16 17 17 18 18 19 28 20 27 21 24 22
REMARK SMILES IDX 25 23 26 24 23 25 22 26 30 27 14 28 9 29 4 30 2 31 3 32 1 33
REMARK SMILES IDX 19 34 20 35 21 36
REMARK H PARENT 21 37
ROOT
ATOM      1  C   UNL     1      89.275  47.531  42.663  1.00  0.00     0.182 C 
ATOM      2  C   UNL     1      88.998  48.158  44.034  1.00  0.00     0.046 C 
ATOM      3  C   UNL     1      89.388  49.634  44.057  1.00  0.00     0.011 C 
ATOM      4  C   UNL     1      88.773  50.472  42.878  1.00  0.00    -0.025 C 
ATOM      5  C   UNL     1      87.836  49.590  41.984  1.00  0.00     0.005 C 
ATOM      6  C   UNL     1      88.423  48.195  41.526  1.00  0.00     0.005 C 
ATOM      7  C   UNL     1      87.220  47.242  41.264  1.00  0.00     0.015 C 
ATOM      8  C   UNL     1      89.204  48.272  40.197  1.00  0.00     0.015 C 
ATOM      9  C   UNL     1      87.218  50.422  40.840  1.00  0.00     0.006 C 
ATOM     10  C   UNL     1      86.391  51.600  41.355  1.00  0.00     0.012 C 
ATOM     11  C   UNL     1      87.112  52.554  42.345  1.00  0.00    -0.008 C 
ATOM     12  C   UNL     1      87.906  51.707  43.436  1.00  0.00     0.005 C 
ATOM     13  C   UNL     1      86.912  51.266  44.538  1.00  0.00     0.006 C 
ATOM     14  C   UNL     1      86.348  52.491  45.237  1.00  0.00     0.012 C 
ATOM     15  C   UNL     1      85.415  53.322  44.335  1.00  0.00    -0.007 C 
ATOM     16  C   UNL     1      86.017  53.523  42.932  1.00  0.00    -0.062 C 
ATOM     17  C   UNL     1      85.456  54.494  42.176  1.00  0.00    -0.025 C 
ATOM     18  C   UNL     1      84.473  55.485  42.718  1.00  0.00     0.046 C 
ATOM     19  C   UNL     1      84.874  55.938  44.134  1.00  0.00     0.075 C 
ATOM     20  C   UNL     1      85.151  54.711  45.080  1.00  0.00     0.017 C 
ATOM     21  C   UNL     1      84.087  54.606  46.202  1.00  0.00     0.012 C 
ATOM     22  C   UNL     1      83.948  55.890  47.058  1.00  0.00    -0.035 C 
ATOM     23  C   UNL     1      82.606  55.820  47.814  1.00  0.00     0.011 C 
ATOM     24  C   UNL     1      85.076  55.960  48.106  1.00  0.00     0.011 C 
ATOM     25  C   UNL     1      83.983  57.164  46.183  1.00  0.00     0.007 C 
ATOM     26  C   UNL     1      83.766  56.862  44.702  1.00  0.00     0.020 C 
ATOM     27  C   UNL     1      84.089  52.520  44.168  1.00  0.00     0.016 C 
ATOM     28  C   UNL     1      88.127  53.445  41.570  1.00  0.00     0.016 C 
ATOM     29  C   UNL     1      90.014  50.977  42.090  1.00  0.00     0.012 C 
ENDROOT
BRANCH   1  30
ATOM     30  O   UNL     1      90.691  47.679  42.416  1.00  0.00    -0.462 OA
BRANCH  30  31
ATOM     31  C   UNL     1      91.542  47.364  43.430  1.00  0.00     0.302 C 
ATOM     32  O   UNL     1      91.633  46.277  43.981  1.00  0.00    -0.253 OA
ATOM     33  C   UNL     1      92.379  48.557  43.774  1.00  0.00     0.139 C 
ENDBRANCH  30  31
ENDBRANCH   1  30
BRANCH  19  34
ATOM     34  C   UNL     1      86.157  56.788  44.000  1.00  0.00     0.310 C 
ATOM     35  O   UNL     1      87.300  56.466  44.285  1.00  0.00    -0.252 OA
BRANCH  34  36
ATOM     36  O   UNL     1      85.933  58.038  43.540  1.00  0.00    -0.481 OA
ATOM     37  H   UNL     1      85.420  58.456  44.264  1.00  0.00     0.296 HD
ENDBRANCH  34  36
ENDBRANCH  19  34
TORSDOF 4
ENDMDL
