MODEL 1
REMARK VINA RESULT:    -8.370      0.000      0.000
REMARK INTER + INTRA:         -13.333
REMARK INTER:                 -11.951
REMARK INTRA:                  -1.382
REMARK UNBOUND:                -1.538
REMARK SMILES COc1cc(C[C@H]2COC(=O)[C@@H]2Cc2ccc(O)c(OC)c2)ccc1O
REMARK SMILES IDX 12 1 10 2 11 3 9 4 8 5 7 6 13 7 14 8 19 9 22 10 17 11 16 12
REMARK SMILES IDX 15 13 20 14 21 15 18 16 6 18 5 19 23 20 4 21 24 22 3 23
REMARK SMILES IDX 25 24 2 25 1 26 26 27
REMARK H PARENT 18 17 26 28
ROOT
ATOM      1  C   UNL     1      86.496  51.560  46.437  1.00  0.00     0.110 C 
ATOM      2  C   UNL     1      87.089  51.023  47.722  1.00  0.00     0.309 C 
ATOM      3  O   UNL     1      88.044  50.270  47.818  1.00  0.00    -0.252 OA
ATOM      4  O   UNL     1      86.386  51.495  48.795  1.00  0.00    -0.465 OA
ATOM      5  C   UNL     1      85.289  52.282  48.327  1.00  0.00     0.237 C 
ATOM      6  C   UNL     1      85.738  52.774  46.968  1.00  0.00     0.046 C 
ENDROOT
BRANCH   1   7
ATOM      7  C   UNL     1      87.576  51.933  45.415  1.00  0.00     0.051 C 
BRANCH   7   8
ATOM      8  C   UNL     1      87.584  50.993  44.231  1.00  0.00    -0.043 A 
ATOM      9  C   UNL     1      87.767  50.632  41.824  1.00  0.00     0.160 A 
ATOM     10  C   UNL     1      87.788  51.488  42.931  1.00  0.00     0.054 A 
ATOM     11  C   UNL     1      87.544  49.265  42.035  1.00  0.00     0.157 A 
ATOM     12  C   UNL     1      87.345  48.758  43.318  1.00  0.00     0.050 A 
ATOM     13  C   UNL     1      87.364  49.621  44.413  1.00  0.00     0.008 A 
BRANCH   9  14
ATOM     14  O   UNL     1      87.948  51.024  40.524  1.00  0.00    -0.493 OA
ATOM     15  C   UNL     1      89.253  51.418  40.130  1.00  0.00     0.278 C 
ENDBRANCH   9  14
BRANCH  11  16
ATOM     16  O   UNL     1      87.521  48.418  40.959  1.00  0.00    -0.504 OA
ATOM     17  H   UNL     1      86.680  47.934  40.959  1.00  0.00     0.293 HD
ENDBRANCH  11  16
ENDBRANCH   7   8
ENDBRANCH   1   7
BRANCH   6  18
ATOM     18  C   UNL     1      84.635  53.352  46.073  1.00  0.00     0.043 C 
BRANCH  18  19
ATOM     19  C   UNL     1      84.949  54.646  45.361  1.00  0.00    -0.044 A 
ATOM     20  C   UNL     1      85.348  55.780  46.084  1.00  0.00     0.008 A 
ATOM     21  C   UNL     1      84.833  54.731  43.960  1.00  0.00     0.054 A 
ATOM     22  C   UNL     1      85.642  56.972  45.425  1.00  0.00     0.050 A 
ATOM     23  C   UNL     1      85.124  55.923  43.294  1.00  0.00     0.160 A 
ATOM     24  C   UNL     1      85.529  57.032  44.044  1.00  0.00     0.157 A 
BRANCH  23  25
ATOM     25  O   UNL     1      85.057  56.133  41.940  1.00  0.00    -0.493 OA
ATOM     26  C   UNL     1      84.307  55.192  41.183  1.00  0.00     0.278 C 
ENDBRANCH  23  25
BRANCH  24  27
ATOM     27  O   UNL     1      85.824  58.215  43.422  1.00  0.00    -0.504 OA
ATOM     28  H   UNL     1      85.254  58.232  42.629  1.00  0.00     0.293 HD
ENDBRANCH  24  27
ENDBRANCH  18  19
ENDBRANCH   6  18
TORSDOF 8
ENDMDL
MODEL 2
REMARK VINA RESULT:    -8.303      3.983      7.298
REMARK INTER + INTRA:         -13.239
REMARK INTER:                 -11.762
REMARK INTRA:                  -1.477
REMARK UNBOUND:                -1.538
REMARK SMILES COc1cc(C[C@H]2COC(=O)[C@@H]2Cc2ccc(O)c(OC)c2)ccc1O
REMARK SMILES IDX 12 1 10 2 11 3 9 4 8 5 7 6 13 7 14 8 19 9 22 10 17 11 16 12
REMARK SMILES IDX 15 13 20 14 21 15 18 16 6 18 5 19 23 20 4 21 24 22 3 23
REMARK SMILES IDX 25 24 2 25 1 26 26 27
REMARK H PARENT 18 17 26 28
ROOT
ATOM      1  C   UNL     1      89.894  48.540  42.348  1.00  0.00     0.110 C 
ATOM      2  C   UNL     1      91.176  48.275  43.106  1.00  0.00     0.309 C 
ATOM      3  O   UNL     1      91.993  49.109  43.459  1.00  0.00    -0.252 OA
ATOM      4  O   UNL     1      91.313  46.934  43.340  1.00  0.00    -0.465 OA
ATOM      5  C   UNL     1      90.226  46.239  42.727  1.00  0.00     0.237 C 
ATOM      6  C   UNL     1      89.115  47.265  42.665  1.00  0.00     0.046 C 
ENDROOT
BRANCH   1   7
ATOM      7  C   UNL     1      89.185  49.808  42.841  1.00  0.00     0.051 C 
BRANCH   7   8
ATOM      8  C   UNL     1      88.882  50.763  41.708  1.00  0.00    -0.043 A 
ATOM      9  C   UNL     1      87.379  52.365  40.644  1.00  0.00     0.160 A 
ATOM     10  C   UNL     1      87.685  51.501  41.701  1.00  0.00     0.054 A 
ATOM     11  C   UNL     1      88.294  52.488  39.590  1.00  0.00     0.157 A 
ATOM     12  C   UNL     1      89.487  51.767  39.585  1.00  0.00     0.050 A 
ATOM     13  C   UNL     1      89.779  50.906  40.642  1.00  0.00     0.008 A 
BRANCH   9  14
ATOM     14  O   UNL     1      86.238  53.116  40.547  1.00  0.00    -0.493 OA
ATOM     15  C   UNL     1      85.158  52.788  41.408  1.00  0.00     0.278 C 
ENDBRANCH   9  14
BRANCH  11  16
ATOM     16  O   UNL     1      88.006  53.331  38.549  1.00  0.00    -0.504 OA
ATOM     17  H   UNL     1      87.053  53.292  38.370  1.00  0.00     0.293 HD
ENDBRANCH  11  16
ENDBRANCH   7   8
ENDBRANCH   1   7
BRANCH   6  18
ATOM     18  C   UNL     1      87.941  46.920  41.741  1.00  0.00     0.043 C 
BRANCH  18  19
ATOM     19  C   UNL     1      86.592  46.746  42.398  1.00  0.00    -0.044 A 
ATOM     20  C   UNL     1      85.989  45.482  42.466  1.00  0.00     0.008 A 
ATOM     21  C   UNL     1      85.919  47.858  42.939  1.00  0.00     0.054 A 
ATOM     22  C   UNL     1      84.746  45.322  43.077  1.00  0.00     0.050 A 
ATOM     23  C   UNL     1      84.673  47.706  43.550  1.00  0.00     0.160 A 
ATOM     24  C   UNL     1      84.104  46.430  43.611  1.00  0.00     0.157 A 
BRANCH  23  25
ATOM     25  O   UNL     1      83.921  48.703  44.119  1.00  0.00    -0.493 OA
ATOM     26  C   UNL     1      84.413  50.031  43.988  1.00  0.00     0.278 C 
ENDBRANCH  23  25
BRANCH  24  27
ATOM     27  O   UNL     1      82.885  46.246  44.204  1.00  0.00    -0.504 OA
ATOM     28  H   UNL     1      82.896  45.322  44.524  1.00  0.00     0.293 HD
ENDBRANCH  24  27
ENDBRANCH  18  19
ENDBRANCH   6  18
TORSDOF 8
ENDMDL
MODEL 3
REMARK VINA RESULT:    -8.217      0.464      6.047
REMARK INTER + INTRA:         -13.117
REMARK INTER:                 -11.818
REMARK INTRA:                  -1.299
REMARK UNBOUND:                -1.538
REMARK SMILES COc1cc(C[C@H]2COC(=O)[C@@H]2Cc2ccc(O)c(OC)c2)ccc1O
REMARK SMILES IDX 12 1 10 2 11 3 9 4 8 5 7 6 13 7 14 8 19 9 22 10 17 11 16 12
REMARK SMILES IDX 15 13 20 14 21 15 18 16 6 18 5 19 23 20 4 21 24 22 3 23
REMARK SMILES IDX 25 24 2 25 1 26 26 27
REMARK H PARENT 18 17 26 28
ROOT
ATOM      1  C   UNL     1      85.866  52.877  46.997  1.00  0.00     0.110 C 
ATOM      2  C   UNL     1      85.454  52.244  48.308  1.00  0.00     0.309 C 
ATOM      3  O   UNL     1      84.559  52.626  49.045  1.00  0.00    -0.252 OA
ATOM      4  O   UNL     1      86.247  51.164  48.578  1.00  0.00    -0.465 OA
ATOM      5  C   UNL     1      87.239  51.046  47.556  1.00  0.00     0.237 C 
ATOM      6  C   UNL     1      86.612  51.711  46.351  1.00  0.00     0.046 C 
ENDROOT
BRANCH   1   7
ATOM      7  C   UNL     1      84.658  53.339  46.175  1.00  0.00     0.051 C 
BRANCH   7   8
ATOM      8  C   UNL     1      84.934  54.630  45.438  1.00  0.00    -0.043 A 
ATOM      9  C   UNL     1      85.112  55.867  43.342  1.00  0.00     0.160 A 
ATOM     10  C   UNL     1      84.828  54.686  44.037  1.00  0.00     0.054 A 
ATOM     11  C   UNL     1      85.499  57.000  44.070  1.00  0.00     0.157 A 
ATOM     12  C   UNL     1      85.603  56.961  45.459  1.00  0.00     0.050 A 
ATOM     13  C   UNL     1      85.322  55.778  46.141  1.00  0.00     0.008 A 
BRANCH   9  14
ATOM     14  O   UNL     1      85.044  56.014  41.982  1.00  0.00    -0.493 OA
ATOM     15  C   UNL     1      84.420  54.979  41.237  1.00  0.00     0.278 C 
ENDBRANCH   9  14
BRANCH  11  16
ATOM     16  O   UNL     1      85.779  58.162  43.400  1.00  0.00    -0.504 OA
ATOM     17  H   UNL     1      86.612  58.051  42.915  1.00  0.00     0.293 HD
ENDBRANCH  11  16
ENDBRANCH   7   8
ENDBRANCH   1   7
BRANCH   6  18
ATOM     18  C   UNL     1      87.572  52.051  45.204  1.00  0.00     0.043 C 
BRANCH  18  19
ATOM     19  C   UNL     1      87.612  51.083  44.045  1.00  0.00    -0.044 A 
ATOM     20  C   UNL     1      87.457  49.706  44.260  1.00  0.00     0.008 A 
ATOM     21  C   UNL     1      87.818  51.556  42.735  1.00  0.00     0.054 A 
ATOM     22  C   UNL     1      87.489  48.815  43.188  1.00  0.00     0.050 A 
ATOM     23  C   UNL     1      87.854  50.668  41.657  1.00  0.00     0.160 A 
ATOM     24  C   UNL     1      87.685  49.302  41.905  1.00  0.00     0.157 A 
BRANCH  23  25
ATOM     25  O   UNL     1      88.040  50.999  40.339  1.00  0.00    -0.493 OA
ATOM     26  C   UNL     1      89.244  51.684  40.015  1.00  0.00     0.278 C 
ENDBRANCH  23  25
BRANCH  24  27
ATOM     27  O   UNL     1      87.713  48.405  40.871  1.00  0.00    -0.504 OA
ATOM     28  H   UNL     1      87.137  48.793  40.184  1.00  0.00     0.293 HD
ENDBRANCH  24  27
ENDBRANCH  18  19
ENDBRANCH   6  18
TORSDOF 8
ENDMDL
MODEL 4
REMARK VINA RESULT:    -8.129      2.019      5.611
REMARK INTER + INTRA:         -12.994
REMARK INTER:                 -11.022
REMARK INTRA:                  -1.971
REMARK UNBOUND:                -1.538
REMARK SMILES COc1cc(C[C@H]2COC(=O)[C@@H]2Cc2ccc(O)c(OC)c2)ccc1O
REMARK SMILES IDX 12 1 10 2 11 3 9 4 8 5 7 6 13 7 14 8 19 9 22 10 17 11 16 12
REMARK SMILES IDX 15 13 20 14 21 15 18 16 6 18 5 19 23 20 4 21 24 22 3 23
REMARK SMILES IDX 25 24 2 25 1 26 26 27
REMARK H PARENT 18 17 26 28
ROOT
ATOM      1  C   UNL     1      85.453  55.492  43.994  1.00  0.00     0.110 C 
ATOM      2  C   UNL     1      85.080  56.368  42.818  1.00  0.00     0.309 C 
ATOM      3  O   UNL     1      84.703  55.986  41.723  1.00  0.00    -0.252 OA
ATOM      4  O   UNL     1      85.239  57.686  43.146  1.00  0.00    -0.465 OA
ATOM      5  C   UNL     1      85.768  57.778  44.470  1.00  0.00     0.237 C 
ATOM      6  C   UNL     1      85.323  56.495  45.139  1.00  0.00     0.046 C 
ENDROOT
BRANCH   1   7
ATOM      7  C   UNL     1      84.508  54.294  44.143  1.00  0.00     0.051 C 
BRANCH   7   8
ATOM      8  C   UNL     1      85.261  52.985  44.214  1.00  0.00    -0.043 A 
ATOM      9  C   UNL     1      85.255  50.559  44.485  1.00  0.00     0.160 A 
ATOM     10  C   UNL     1      84.568  51.774  44.386  1.00  0.00     0.054 A 
ATOM     11  C   UNL     1      86.654  50.570  44.401  1.00  0.00     0.157 A 
ATOM     12  C   UNL     1      87.355  51.761  44.224  1.00  0.00     0.050 A 
ATOM     13  C   UNL     1      86.660  52.965  44.133  1.00  0.00     0.008 A 
BRANCH   9  14
ATOM     14  O   UNL     1      84.668  49.335  44.661  1.00  0.00    -0.493 OA
ATOM     15  C   UNL     1      83.923  48.800  43.577  1.00  0.00     0.278 C 
ENDBRANCH   9  14
BRANCH  11  16
ATOM     16  O   UNL     1      87.338  49.386  44.496  1.00  0.00    -0.504 OA
ATOM     17  H   UNL     1      88.030  49.369  43.816  1.00  0.00     0.293 HD
ENDBRANCH  11  16
ENDBRANCH   7   8
ENDBRANCH   1   7
BRANCH   6  18
ATOM     18  C   UNL     1      86.034  56.147  46.452  1.00  0.00     0.043 C 
BRANCH  18  19
ATOM     19  C   UNL     1      85.366  55.118  47.332  1.00  0.00    -0.044 A 
ATOM     20  C   UNL     1      84.059  55.320  47.800  1.00  0.00     0.008 A 
ATOM     21  C   UNL     1      86.055  53.947  47.703  1.00  0.00     0.054 A 
ATOM     22  C   UNL     1      83.442  54.367  48.609  1.00  0.00     0.050 A 
ATOM     23  C   UNL     1      85.443  52.990  48.514  1.00  0.00     0.160 A 
ATOM     24  C   UNL     1      84.135  53.217  48.955  1.00  0.00     0.157 A 
BRANCH  23  25
ATOM     25  O   UNL     1      86.000  51.810  48.938  1.00  0.00    -0.493 OA
ATOM     26  C   UNL     1      86.713  51.053  47.968  1.00  0.00     0.278 C 
ENDBRANCH  23  25
BRANCH  24  27
ATOM     27  O   UNL     1      83.506  52.298  49.750  1.00  0.00    -0.504 OA
ATOM     28  H   UNL     1      82.574  52.589  49.784  1.00  0.00     0.293 HD
ENDBRANCH  24  27
ENDBRANCH  18  19
ENDBRANCH   6  18
TORSDOF 8
ENDMDL
MODEL 5
REMARK VINA RESULT:    -7.972      1.201      6.574
REMARK INTER + INTRA:         -12.772
REMARK INTER:                 -11.656
REMARK INTRA:                  -1.115
REMARK UNBOUND:                -1.538
REMARK SMILES COc1cc(C[C@H]2COC(=O)[C@@H]2Cc2ccc(O)c(OC)c2)ccc1O
REMARK SMILES IDX 12 1 10 2 11 3 9 4 8 5 7 6 13 7 14 8 19 9 22 10 17 11 16 12
REMARK SMILES IDX 15 13 20 14 21 15 18 16 6 18 5 19 23 20 4 21 24 22 3 23
REMARK SMILES IDX 25 24 2 25 1 26 26 27
REMARK H PARENT 18 17 26 28
ROOT
ATOM      1  C   UNL     1      86.296  52.589  46.535  1.00  0.00     0.110 C 
ATOM      2  C   UNL     1      85.992  52.047  47.915  1.00  0.00     0.309 C 
ATOM      3  O   UNL     1      85.200  52.514  48.716  1.00  0.00    -0.252 OA
ATOM      4  O   UNL     1      86.755  50.940  48.162  1.00  0.00    -0.465 OA
ATOM      5  C   UNL     1      87.627  50.715  47.052  1.00  0.00     0.237 C 
ATOM      6  C   UNL     1      86.911  51.353  45.881  1.00  0.00     0.046 C 
ENDROOT
BRANCH   1   7
ATOM      7  C   UNL     1      85.033  53.076  45.816  1.00  0.00     0.051 C 
BRANCH   7   8
ATOM      8  C   UNL     1      85.232  54.432  45.177  1.00  0.00    -0.043 A 
ATOM      9  C   UNL     1      85.121  55.877  43.213  1.00  0.00     0.160 A 
ATOM     10  C   UNL     1      84.912  54.635  43.824  1.00  0.00     0.054 A 
ATOM     11  C   UNL     1      85.649  56.922  43.982  1.00  0.00     0.157 A 
ATOM     12  C   UNL     1      85.966  56.739  45.326  1.00  0.00     0.050 A 
ATOM     13  C   UNL     1      85.759  55.496  45.921  1.00  0.00     0.008 A 
BRANCH   9  14
ATOM     14  O   UNL     1      84.847  56.165  41.903  1.00  0.00    -0.493 OA
ATOM     15  C   UNL     1      84.475  55.089  41.055  1.00  0.00     0.278 C 
ENDBRANCH   9  14
BRANCH  11  16
ATOM     16  O   UNL     1      85.858  58.143  43.395  1.00  0.00    -0.504 OA
ATOM     17  H   UNL     1      85.460  58.830  43.952  1.00  0.00     0.293 HD
ENDBRANCH  11  16
ENDBRANCH   7   8
ENDBRANCH   1   7
BRANCH   6  18
ATOM     18  C   UNL     1      87.761  51.581  44.626  1.00  0.00     0.043 C 
BRANCH  18  19
ATOM     19  C   UNL     1      87.888  50.416  43.673  1.00  0.00    -0.044 A 
ATOM     20  C   UNL     1      88.801  50.460  42.610  1.00  0.00     0.008 A 
ATOM     21  C   UNL     1      87.080  49.275  43.839  1.00  0.00     0.054 A 
ATOM     22  C   UNL     1      88.920  49.381  41.735  1.00  0.00     0.050 A 
ATOM     23  C   UNL     1      87.193  48.192  42.965  1.00  0.00     0.160 A 
ATOM     24  C   UNL     1      88.120  48.264  41.920  1.00  0.00     0.157 A 
BRANCH  23  25
ATOM     25  O   UNL     1      86.473  47.026  43.021  1.00  0.00    -0.493 OA
ATOM     26  C   UNL     1      85.183  47.098  43.616  1.00  0.00     0.278 C 
ENDBRANCH  23  25
BRANCH  24  27
ATOM     27  O   UNL     1      88.258  47.219  41.047  1.00  0.00    -0.504 OA
ATOM     28  H   UNL     1      87.369  47.094  40.661  1.00  0.00     0.293 HD
ENDBRANCH  24  27
ENDBRANCH  18  19
ENDBRANCH   6  18
TORSDOF 8
ENDMDL
MODEL 6
REMARK VINA RESULT:    -7.950      1.414      5.123
REMARK INTER + INTRA:         -12.742
REMARK INTER:                 -11.170
REMARK INTRA:                  -1.572
REMARK UNBOUND:                -1.538
REMARK SMILES COc1cc(C[C@H]2COC(=O)[C@@H]2Cc2ccc(O)c(OC)c2)ccc1O
REMARK SMILES IDX 12 1 10 2 11 3 9 4 8 5 7 6 13 7 14 8 19 9 22 10 17 11 16 12
REMARK SMILES IDX 15 13 20 14 21 15 18 16 6 18 5 19 23 20 4 21 24 22 3 23
REMARK SMILES IDX 25 24 2 25 1 26 26 27
REMARK H PARENT 18 17 26 28
ROOT
ATOM      1  C   UNL     1      85.732  55.137  43.475  1.00  0.00     0.110 C 
ATOM      2  C   UNL     1      85.064  55.958  42.394  1.00  0.00     0.309 C 
ATOM      3  O   UNL     1      84.813  55.592  41.258  1.00  0.00    -0.252 OA
ATOM      4  O   UNL     1      84.780  57.211  42.865  1.00  0.00    -0.465 OA
ATOM      5  C   UNL     1      85.276  57.331  44.200  1.00  0.00     0.237 C 
ATOM      6  C   UNL     1      85.298  55.910  44.718  1.00  0.00     0.046 C 
ENDROOT
BRANCH   1   7
ATOM      7  C   UNL     1      85.245  53.684  43.478  1.00  0.00     0.051 C 
BRANCH   7   8
ATOM      8  C   UNL     1      86.362  52.711  43.169  1.00  0.00    -0.043 A 
ATOM      9  C   UNL     1      87.732  51.523  41.536  1.00  0.00     0.160 A 
ATOM     10  C   UNL     1      86.722  52.444  41.837  1.00  0.00     0.054 A 
ATOM     11  C   UNL     1      88.387  50.875  42.592  1.00  0.00     0.157 A 
ATOM     12  C   UNL     1      88.044  51.134  43.918  1.00  0.00     0.050 A 
ATOM     13  C   UNL     1      87.033  52.049  44.204  1.00  0.00     0.008 A 
BRANCH   9  14
ATOM     14  O   UNL     1      88.145  51.193  40.273  1.00  0.00    -0.493 OA
ATOM     15  C   UNL     1      88.884  52.163  39.546  1.00  0.00     0.278 C 
ENDBRANCH   9  14
BRANCH  11  16
ATOM     16  O   UNL     1      89.378  49.972  42.310  1.00  0.00    -0.504 OA
ATOM     17  H   UNL     1      89.108  49.439  41.547  1.00  0.00     0.293 HD
ENDBRANCH  11  16
ENDBRANCH   7   8
ENDBRANCH   1   7
BRANCH   6  18
ATOM     18  C   UNL     1      86.112  55.682  45.998  1.00  0.00     0.043 C 
BRANCH  18  19
ATOM     19  C   UNL     1      85.497  54.778  47.040  1.00  0.00    -0.044 A 
ATOM     20  C   UNL     1      84.311  55.144  47.693  1.00  0.00     0.008 A 
ATOM     21  C   UNL     1      86.117  53.558  47.374  1.00  0.00     0.054 A 
ATOM     22  C   UNL     1      83.742  54.306  48.650  1.00  0.00     0.050 A 
ATOM     23  C   UNL     1      85.553  52.715  48.333  1.00  0.00     0.160 A 
ATOM     24  C   UNL     1      84.364  53.106  48.959  1.00  0.00     0.157 A 
BRANCH  23  25
ATOM     25  O   UNL     1      86.051  51.504  48.743  1.00  0.00    -0.493 OA
ATOM     26  C   UNL     1      86.787  50.756  47.782  1.00  0.00     0.278 C 
ENDBRANCH  23  25
BRANCH  24  27
ATOM     27  O   UNL     1      83.785  52.302  49.902  1.00  0.00    -0.504 OA
ATOM     28  H   UNL     1      83.395  51.561  49.398  1.00  0.00     0.293 HD
ENDBRANCH  24  27
ENDBRANCH  18  19
ENDBRANCH   6  18
TORSDOF 8
ENDMDL
MODEL 7
REMARK VINA RESULT:    -7.819      2.773      5.720
REMARK INTER + INTRA:         -12.556
REMARK INTER:                 -10.945
REMARK INTRA:                  -1.611
REMARK UNBOUND:                -1.538
REMARK SMILES COc1cc(C[C@H]2COC(=O)[C@@H]2Cc2ccc(O)c(OC)c2)ccc1O
REMARK SMILES IDX 12 1 10 2 11 3 9 4 8 5 7 6 13 7 14 8 19 9 22 10 17 11 16 12
REMARK SMILES IDX 15 13 20 14 21 15 18 16 6 18 5 19 23 20 4 21 24 22 3 23
REMARK SMILES IDX 25 24 2 25 1 26 26 27
REMARK H PARENT 18 17 26 28
ROOT
ATOM      1  C   UNL     1      87.663  48.265  42.125  1.00  0.00     0.110 C 
ATOM      2  C   UNL     1      88.666  47.142  41.967  1.00  0.00     0.309 C 
ATOM      3  O   UNL     1      89.791  47.238  41.504  1.00  0.00    -0.252 OA
ATOM      4  O   UNL     1      88.128  45.967  42.412  1.00  0.00    -0.465 OA
ATOM      5  C   UNL     1      86.775  46.194  42.811  1.00  0.00     0.237 C 
ATOM      6  C   UNL     1      86.736  47.661  43.177  1.00  0.00     0.046 C 
ENDROOT
BRANCH   1   7
ATOM      7  C   UNL     1      88.324  49.567  42.591  1.00  0.00     0.051 C 
BRANCH   7   8
ATOM      8  C   UNL     1      88.322  50.622  41.507  1.00  0.00    -0.043 A 
ATOM      9  C   UNL     1      87.205  52.459  40.353  1.00  0.00     0.160 A 
ATOM     10  C   UNL     1      87.232  51.500  41.371  1.00  0.00     0.054 A 
ATOM     11  C   UNL     1      88.291  52.536  39.472  1.00  0.00     0.157 A 
ATOM     12  C   UNL     1      89.381  51.677  39.597  1.00  0.00     0.050 A 
ATOM     13  C   UNL     1      89.395  50.721  40.612  1.00  0.00     0.008 A 
BRANCH   9  14
ATOM     14  O   UNL     1      86.186  53.349  40.138  1.00  0.00    -0.493 OA
ATOM     15  C   UNL     1      84.998  53.186  40.898  1.00  0.00     0.278 C 
ENDBRANCH   9  14
BRANCH  11  16
ATOM     16  O   UNL     1      88.276  53.472  38.471  1.00  0.00    -0.504 OA
ATOM     17  H   UNL     1      88.179  53.018  37.619  1.00  0.00     0.293 HD
ENDBRANCH  11  16
ENDBRANCH   7   8
ENDBRANCH   1   7
BRANCH   6  18
ATOM     18  C   UNL     1      85.338  48.278  43.307  1.00  0.00     0.043 C 
BRANCH  18  19
ATOM     19  C   UNL     1      85.239  49.578  44.070  1.00  0.00    -0.044 A 
ATOM     20  C   UNL     1      84.340  50.576  43.667  1.00  0.00     0.008 A 
ATOM     21  C   UNL     1      86.062  49.806  45.190  1.00  0.00     0.054 A 
ATOM     22  C   UNL     1      84.247  51.773  44.375  1.00  0.00     0.050 A 
ATOM     23  C   UNL     1      85.975  51.003  45.903  1.00  0.00     0.160 A 
ATOM     24  C   UNL     1      85.061  51.974  45.480  1.00  0.00     0.157 A 
BRANCH  23  25
ATOM     25  O   UNL     1      86.711  51.344  47.009  1.00  0.00    -0.493 OA
ATOM     26  C   UNL     1      87.220  50.274  47.794  1.00  0.00     0.278 C 
ENDBRANCH  23  25
BRANCH  24  27
ATOM     27  O   UNL     1      84.950  53.158  46.157  1.00  0.00    -0.504 OA
ATOM     28  H   UNL     1      85.789  53.248  46.648  1.00  0.00     0.293 HD
ENDBRANCH  24  27
ENDBRANCH  18  19
ENDBRANCH   6  18
TORSDOF 8
ENDMDL
MODEL 8
REMARK VINA RESULT:    -7.609      1.805      2.204
REMARK INTER + INTRA:         -12.260
REMARK INTER:                 -10.722
REMARK INTRA:                  -1.538
REMARK UNBOUND:                -1.538
REMARK SMILES COc1cc(C[C@H]2COC(=O)[C@@H]2Cc2ccc(O)c(OC)c2)ccc1O
REMARK SMILES IDX 12 1 10 2 11 3 9 4 8 5 7 6 13 7 14 8 19 9 22 10 17 11 16 12
REMARK SMILES IDX 15 13 20 14 21 15 18 16 6 18 5 19 23 20 4 21 24 22 3 23
REMARK SMILES IDX 25 24 2 25 1 26 26 27
REMARK H PARENT 18 17 26 28
ROOT
ATOM      1  C   UNL     1      86.387  51.406  46.706  1.00  0.00     0.110 C 
ATOM      2  C   UNL     1      87.033  50.886  47.971  1.00  0.00     0.309 C 
ATOM      3  O   UNL     1      87.933  50.065  48.039  1.00  0.00    -0.252 OA
ATOM      4  O   UNL     1      86.451  51.463  49.066  1.00  0.00    -0.465 OA
ATOM      5  C   UNL     1      85.385  52.311  48.636  1.00  0.00     0.237 C 
ATOM      6  C   UNL     1      85.765  52.701  47.225  1.00  0.00     0.046 C 
ENDROOT
BRANCH   1   7
ATOM      7  C   UNL     1      87.411  51.644  45.591  1.00  0.00     0.051 C 
BRANCH   7   8
ATOM      8  C   UNL     1      87.388  50.541  44.556  1.00  0.00    -0.043 A 
ATOM      9  C   UNL     1      88.403  49.427  42.637  1.00  0.00     0.160 A 
ATOM     10  C   UNL     1      88.429  50.424  43.618  1.00  0.00     0.054 A 
ATOM     11  C   UNL     1      87.321  48.537  42.610  1.00  0.00     0.157 A 
ATOM     12  C   UNL     1      86.285  48.637  43.537  1.00  0.00     0.050 A 
ATOM     13  C   UNL     1      86.319  49.638  44.506  1.00  0.00     0.008 A 
BRANCH   9  14
ATOM     14  O   UNL     1      89.365  49.241  41.679  1.00  0.00    -0.493 OA
ATOM     15  C   UNL     1      90.715  49.154  42.109  1.00  0.00     0.278 C 
ENDBRANCH   9  14
BRANCH  11  16
ATOM     16  O   UNL     1      87.285  47.557  41.654  1.00  0.00    -0.504 OA
ATOM     17  H   UNL     1      87.931  46.871  41.885  1.00  0.00     0.293 HD
ENDBRANCH  11  16
ENDBRANCH   7   8
ENDBRANCH   1   7
BRANCH   6  18
ATOM     18  C   UNL     1      84.645  53.321  46.381  1.00  0.00     0.043 C 
BRANCH  18  19
ATOM     19  C   UNL     1      84.931  53.512  44.910  1.00  0.00    -0.044 A 
ATOM     20  C   UNL     1      85.849  54.480  44.481  1.00  0.00     0.008 A 
ATOM     21  C   UNL     1      84.266  52.722  43.952  1.00  0.00     0.054 A 
ATOM     22  C   UNL     1      86.115  54.651  43.123  1.00  0.00     0.050 A 
ATOM     23  C   UNL     1      84.527  52.889  42.590  1.00  0.00     0.160 A 
ATOM     24  C   UNL     1      85.456  53.857  42.197  1.00  0.00     0.157 A 
BRANCH  23  25
ATOM     25  O   UNL     1      83.955  52.183  41.563  1.00  0.00    -0.493 OA
ATOM     26  C   UNL     1      82.534  52.113  41.547  1.00  0.00     0.278 C 
ENDBRANCH  23  25
BRANCH  24  27
ATOM     27  O   UNL     1      85.736  54.045  40.870  1.00  0.00    -0.504 OA
ATOM     28  H   UNL     1      86.240  53.252  40.603  1.00  0.00     0.293 HD
ENDBRANCH  24  27
ENDBRANCH  18  19
ENDBRANCH   6  18
TORSDOF 8
ENDMDL
MODEL 9
REMARK VINA RESULT:    -7.556      2.594      4.509
REMARK INTER + INTRA:         -12.187
REMARK INTER:                 -10.713
REMARK INTRA:                  -1.473
REMARK UNBOUND:                -1.538
REMARK SMILES COc1cc(C[C@H]2COC(=O)[C@@H]2Cc2ccc(O)c(OC)c2)ccc1O
REMARK SMILES IDX 12 1 10 2 11 3 9 4 8 5 7 6 13 7 14 8 19 9 22 10 17 11 16 12
REMARK SMILES IDX 15 13 20 14 21 15 18 16 6 18 5 19 23 20 4 21 24 22 3 23
REMARK SMILES IDX 25 24 2 25 1 26 26 27
REMARK H PARENT 18 17 26 28
ROOT
ATOM      1  C   UNL     1      85.622  50.715  44.173  1.00  0.00     0.110 C 
ATOM      2  C   UNL     1      85.308  49.243  44.329  1.00  0.00     0.309 C 
ATOM      3  O   UNL     1      84.577  48.579  43.613  1.00  0.00    -0.252 OA
ATOM      4  O   UNL     1      85.959  48.738  45.421  1.00  0.00    -0.465 OA
ATOM      5  C   UNL     1      86.660  49.796  46.078  1.00  0.00     0.237 C 
ATOM      6  C   UNL     1      86.912  50.810  44.984  1.00  0.00     0.046 C 
ENDROOT
BRANCH   1   7
ATOM      7  C   UNL     1      85.811  51.111  42.704  1.00  0.00     0.051 C 
BRANCH   7   8
ATOM      8  C   UNL     1      84.629  51.890  42.171  1.00  0.00    -0.043 A 
ATOM      9  C   UNL     1      83.744  53.822  40.972  1.00  0.00     0.160 A 
ATOM     10  C   UNL     1      84.829  53.076  41.443  1.00  0.00     0.054 A 
ATOM     11  C   UNL     1      82.447  53.359  41.232  1.00  0.00     0.157 A 
ATOM     12  C   UNL     1      82.233  52.182  41.946  1.00  0.00     0.050 A 
ATOM     13  C   UNL     1      83.322  51.451  42.416  1.00  0.00     0.008 A 
BRANCH   9  14
ATOM     14  O   UNL     1      83.840  54.990  40.263  1.00  0.00    -0.493 OA
ATOM     15  C   UNL     1      84.515  54.949  39.015  1.00  0.00     0.278 C 
ENDBRANCH   9  14
BRANCH  11  16
ATOM     16  O   UNL     1      81.375  54.081  40.774  1.00  0.00    -0.504 OA
ATOM     17  H   UNL     1      81.541  55.023  40.935  1.00  0.00     0.293 HD
ENDBRANCH  11  16
ENDBRANCH   7   8
ENDBRANCH   1   7
BRANCH   6  18
ATOM     18  C   UNL     1      87.335  52.207  45.456  1.00  0.00     0.043 C 
BRANCH  18  19
ATOM     19  C   UNL     1      86.249  53.085  46.030  1.00  0.00    -0.044 A 
ATOM     20  C   UNL     1      85.719  52.825  47.302  1.00  0.00     0.008 A 
ATOM     21  C   UNL     1      85.747  54.170  45.286  1.00  0.00     0.054 A 
ATOM     22  C   UNL     1      84.720  53.640  47.833  1.00  0.00     0.050 A 
ATOM     23  C   UNL     1      84.746  54.989  45.810  1.00  0.00     0.160 A 
ATOM     24  C   UNL     1      84.246  54.708  47.087  1.00  0.00     0.157 A 
BRANCH  23  25
ATOM     25  O   UNL     1      84.179  56.075  45.193  1.00  0.00    -0.493 OA
ATOM     26  C   UNL     1      84.389  56.197  43.792  1.00  0.00     0.278 C 
ENDBRANCH  23  25
BRANCH  24  27
ATOM     27  O   UNL     1      83.265  55.492  47.631  1.00  0.00    -0.504 OA
ATOM     28  H   UNL     1      83.607  55.752  48.508  1.00  0.00     0.293 HD
ENDBRANCH  24  27
ENDBRANCH  18  19
ENDBRANCH   6  18
TORSDOF 8
ENDMDL
