MODEL 1
REMARK VINA RESULT:    -9.876      0.000      0.000
REMARK INTER + INTRA:         -11.086
REMARK INTER:                 -10.718
REMARK INTRA:                  -0.368
REMARK UNBOUND:                -0.344
REMARK SMILES CC1(C)C=Cc2c(cc(O)c3c2OC(c2ccccc2)CC3=O)O1
REMARK SMILES IDX 23 1 22 2 21 3 14 4 13 5 12 6 11 7 9 8 8 9 7 10 6 11 5 12
REMARK SMILES IDX 4 13 2 14 24 15 1 16 3 17 15 18 16 19 20 20 17 21 19 22
REMARK SMILES IDX 18 23 10 24
REMARK H PARENT 10 25
ROOT
ATOM      1  O   UNL     1      85.881  52.249  48.816  1.00  0.00    -0.294 OA
ATOM      2  C   UNL     1      86.043  52.723  47.693  1.00  0.00     0.174 C 
ATOM      3  C   UNL     1      85.489  54.055  47.285  1.00  0.00     0.131 C 
ATOM      4  C   UNL     1      86.415  54.643  46.233  1.00  0.00     0.211 C 
ATOM      5  O   UNL     1      86.488  53.778  45.089  1.00  0.00    -0.484 OA
ATOM      6  C   UNL     1      86.931  52.510  45.392  1.00  0.00     0.145 A 
ATOM      7  C   UNL     1      86.757  51.944  46.661  1.00  0.00     0.102 A 
ATOM      8  C   UNL     1      87.225  50.655  46.922  1.00  0.00     0.133 A 
ATOM      9  C   UNL     1      87.853  49.925  45.920  1.00  0.00     0.094 A 
ATOM     10  C   UNL     1      88.007  50.475  44.646  1.00  0.00     0.135 A 
ATOM     11  C   UNL     1      87.546  51.767  44.368  1.00  0.00     0.060 A 
ATOM     12  C   UNL     1      87.732  52.310  43.027  1.00  0.00     0.015 C 
ATOM     13  C   UNL     1      88.314  51.539  42.104  1.00  0.00     0.021 C 
ATOM     14  C   UNL     1      88.793  50.134  42.378  1.00  0.00     0.122 C 
ATOM     15  O   UNL     1      88.630  49.672  43.734  1.00  0.00    -0.483 OA
ATOM     16  C   UNL     1      90.293  50.043  42.071  1.00  0.00     0.061 C 
ATOM     17  C   UNL     1      88.023  49.152  41.487  1.00  0.00     0.061 C 
ENDROOT
BRANCH   4  18
ATOM     18  C   UNL     1      85.919  56.005  45.786  1.00  0.00    -0.007 A 
ATOM     19  C   UNL     1      84.983  56.727  46.544  1.00  0.00     0.007 A 
ATOM     20  C   UNL     1      86.422  56.584  44.611  1.00  0.00     0.007 A 
ATOM     21  C   UNL     1      84.555  57.990  46.131  1.00  0.00     0.000 A 
ATOM     22  C   UNL     1      85.994  57.847  44.200  1.00  0.00     0.000 A 
ATOM     23  C   UNL     1      85.060  58.550  44.959  1.00  0.00     0.000 A 
ENDBRANCH   4  18
BRANCH   8  24
ATOM     24  O   UNL     1      87.093  50.043  48.139  1.00  0.00    -0.507 OA
ATOM     25  H   UNL     1      87.406  50.666  48.834  1.00  0.00     0.293 HD
ENDBRANCH   8  24
TORSDOF 2
ENDMDL
MODEL 2
REMARK VINA RESULT:    -9.637      2.308      4.409
REMARK INTER + INTRA:         -10.827
REMARK INTER:                 -10.447
REMARK INTRA:                  -0.380
REMARK UNBOUND:                -0.344
REMARK SMILES CC1(C)C=Cc2c(cc(O)c3c2OC(c2ccccc2)CC3=O)O1
REMARK SMILES IDX 23 1 22 2 21 3 14 4 13 5 12 6 11 7 9 8 8 9 7 10 6 11 5 12
REMARK SMILES IDX 4 13 2 14 24 15 1 16 3 17 15 18 16 19 20 20 17 21 19 22
REMARK SMILES IDX 18 23 10 24
REMARK H PARENT 10 25
ROOT
ATOM      1  O   UNL     1      85.159  55.182  41.500  1.00  0.00    -0.294 OA
ATOM      2  C   UNL     1      85.584  54.469  42.407  1.00  0.00     0.174 C 
ATOM      3  C   UNL     1      85.399  54.802  43.857  1.00  0.00     0.131 C 
ATOM      4  C   UNL     1      85.341  53.496  44.632  1.00  0.00     0.211 C 
ATOM      5  O   UNL     1      86.558  52.753  44.456  1.00  0.00    -0.484 OA
ATOM      6  C   UNL     1      86.832  52.461  43.139  1.00  0.00     0.145 A 
ATOM      7  C   UNL     1      86.365  53.257  42.087  1.00  0.00     0.102 A 
ATOM      8  C   UNL     1      86.668  52.920  40.766  1.00  0.00     0.133 A 
ATOM      9  C   UNL     1      87.444  51.799  40.493  1.00  0.00     0.094 A 
ATOM     10  C   UNL     1      87.932  51.015  41.540  1.00  0.00     0.135 A 
ATOM     11  C   UNL     1      87.636  51.339  42.870  1.00  0.00     0.060 A 
ATOM     12  C   UNL     1      88.160  50.491  43.935  1.00  0.00     0.015 C 
ATOM     13  C   UNL     1      88.926  49.449  43.601  1.00  0.00     0.021 C 
ATOM     14  C   UNL     1      89.279  49.101  42.175  1.00  0.00     0.122 C 
ATOM     15  O   UNL     1      88.690  49.943  41.163  1.00  0.00    -0.483 OA
ATOM     16  C   UNL     1      88.807  47.674  41.872  1.00  0.00     0.061 C 
ATOM     17  C   UNL     1      90.798  49.194  41.989  1.00  0.00     0.061 C 
ENDROOT
BRANCH   4  18
ATOM     18  C   UNL     1      85.138  53.761  46.112  1.00  0.00    -0.007 A 
ATOM     19  C   UNL     1      84.432  54.887  46.562  1.00  0.00     0.007 A 
ATOM     20  C   UNL     1      85.631  52.852  47.060  1.00  0.00     0.007 A 
ATOM     21  C   UNL     1      84.233  55.103  47.927  1.00  0.00     0.000 A 
ATOM     22  C   UNL     1      85.431  53.070  48.425  1.00  0.00     0.000 A 
ATOM     23  C   UNL     1      84.733  54.195  48.858  1.00  0.00     0.000 A 
ENDBRANCH   4  18
BRANCH   8  24
ATOM     24  O   UNL     1      86.241  53.650  39.691  1.00  0.00    -0.507 OA
ATOM     25  H   UNL     1      86.515  53.182  38.869  1.00  0.00     0.293 HD
ENDBRANCH   8  24
TORSDOF 2
ENDMDL
MODEL 3
REMARK VINA RESULT:    -9.092      5.085      8.808
REMARK INTER + INTRA:         -10.233
REMARK INTER:                  -9.881
REMARK INTRA:                  -0.352
REMARK UNBOUND:                -0.344
REMARK SMILES CC1(C)C=Cc2c(cc(O)c3c2OC(c2ccccc2)CC3=O)O1
REMARK SMILES IDX 23 1 22 2 21 3 14 4 13 5 12 6 11 7 9 8 8 9 7 10 6 11 5 12
REMARK SMILES IDX 4 13 2 14 24 15 1 16 3 17 15 18 16 19 20 20 17 21 19 22
REMARK SMILES IDX 18 23 10 24
REMARK H PARENT 10 25
ROOT
ATOM      1  O   UNL     1      81.520  45.844  43.600  1.00  0.00    -0.294 OA
ATOM      2  C   UNL     1      82.662  46.299  43.600  1.00  0.00     0.174 C 
ATOM      3  C   UNL     1      83.882  45.435  43.731  1.00  0.00     0.131 C 
ATOM      4  C   UNL     1      85.019  46.119  42.990  1.00  0.00     0.211 C 
ATOM      5  O   UNL     1      85.279  47.414  43.555  1.00  0.00    -0.484 OA
ATOM      6  C   UNL     1      84.185  48.249  43.531  1.00  0.00     0.145 A 
ATOM      7  C   UNL     1      82.874  47.759  43.533  1.00  0.00     0.102 A 
ATOM      8  C   UNL     1      81.795  48.645  43.505  1.00  0.00     0.133 A 
ATOM      9  C   UNL     1      82.020  50.017  43.488  1.00  0.00     0.094 A 
ATOM     10  C   UNL     1      83.326  50.511  43.511  1.00  0.00     0.135 A 
ATOM     11  C   UNL     1      84.418  49.636  43.536  1.00  0.00     0.060 A 
ATOM     12  C   UNL     1      85.767  50.192  43.551  1.00  0.00     0.015 C 
ATOM     13  C   UNL     1      85.907  51.520  43.568  1.00  0.00     0.021 C 
ATOM     14  C   UNL     1      84.741  52.479  43.568  1.00  0.00     0.122 C 
ATOM     15  O   UNL     1      83.435  51.873  43.499  1.00  0.00    -0.483 OA
ATOM     16  C   UNL     1      84.849  53.406  42.352  1.00  0.00     0.061 C 
ATOM     17  C   UNL     1      84.768  53.311  44.856  1.00  0.00     0.061 C 
ENDROOT
BRANCH   4  18
ATOM     18  C   UNL     1      86.284  45.287  43.069  1.00  0.00    -0.007 A 
ATOM     19  C   UNL     1      87.468  45.695  42.433  1.00  0.00     0.007 A 
ATOM     20  C   UNL     1      86.298  44.100  43.817  1.00  0.00     0.007 A 
ATOM     21  C   UNL     1      88.631  44.930  42.536  1.00  0.00     0.000 A 
ATOM     22  C   UNL     1      87.463  43.337  43.919  1.00  0.00     0.000 A 
ATOM     23  C   UNL     1      88.628  43.751  43.278  1.00  0.00     0.000 A 
ENDBRANCH   4  18
BRANCH   8  24
ATOM     24  O   UNL     1      80.490  48.235  43.502  1.00  0.00    -0.507 OA
ATOM     25  H   UNL     1      79.999  48.769  42.836  1.00  0.00     0.293 HD
ENDBRANCH   8  24
TORSDOF 2
ENDMDL
MODEL 4
REMARK VINA RESULT:    -9.085      2.365      7.494
REMARK INTER + INTRA:         -10.226
REMARK INTER:                  -9.903
REMARK INTRA:                  -0.323
REMARK UNBOUND:                -0.344
REMARK SMILES CC1(C)C=Cc2c(cc(O)c3c2OC(c2ccccc2)CC3=O)O1
REMARK SMILES IDX 23 1 22 2 21 3 14 4 13 5 12 6 11 7 9 8 8 9 7 10 6 11 5 12
REMARK SMILES IDX 4 13 2 14 24 15 1 16 3 17 15 18 16 19 20 20 17 21 19 22
REMARK SMILES IDX 18 23 10 24
REMARK H PARENT 10 25
ROOT
ATOM      1  O   UNL     1      86.400  53.347  39.966  1.00  0.00    -0.294 OA
ATOM      2  C   UNL     1      86.656  52.670  40.960  1.00  0.00     0.174 C 
ATOM      3  C   UNL     1      87.308  51.322  40.880  1.00  0.00     0.131 C 
ATOM      4  C   UNL     1      88.113  51.117  42.153  1.00  0.00     0.211 C 
ATOM      5  O   UNL     1      87.256  51.174  43.304  1.00  0.00    -0.484 OA
ATOM      6  C   UNL     1      86.571  52.362  43.415  1.00  0.00     0.145 A 
ATOM      7  C   UNL     1      86.263  53.151  42.300  1.00  0.00     0.102 A 
ATOM      8  C   UNL     1      85.567  54.351  42.461  1.00  0.00     0.133 A 
ATOM      9  C   UNL     1      85.167  54.759  43.729  1.00  0.00     0.094 A 
ATOM     10  C   UNL     1      85.451  53.965  44.841  1.00  0.00     0.135 A 
ATOM     11  C   UNL     1      86.149  52.760  44.696  1.00  0.00     0.060 A 
ATOM     12  C   UNL     1      86.432  51.962  45.884  1.00  0.00     0.015 C 
ATOM     13  C   UNL     1      85.988  52.399  47.065  1.00  0.00     0.021 C 
ATOM     14  C   UNL     1      85.210  53.681  47.237  1.00  0.00     0.122 C 
ATOM     15  O   UNL     1      85.007  54.454  46.037  1.00  0.00    -0.483 OA
ATOM     16  C   UNL     1      85.955  54.597  48.216  1.00  0.00     0.061 C 
ATOM     17  C   UNL     1      83.816  53.360  47.790  1.00  0.00     0.061 C 
ENDROOT
BRANCH   4  18
ATOM     18  C   UNL     1      88.815  49.773  42.130  1.00  0.00    -0.007 A 
ATOM     19  C   UNL     1      88.118  48.589  41.838  1.00  0.00     0.007 A 
ATOM     20  C   UNL     1      90.195  49.698  42.371  1.00  0.00     0.007 A 
ATOM     21  C   UNL     1      88.784  47.363  41.797  1.00  0.00     0.000 A 
ATOM     22  C   UNL     1      90.859  48.470  42.329  1.00  0.00     0.000 A 
ATOM     23  C   UNL     1      90.154  47.304  42.043  1.00  0.00     0.000 A 
ENDBRANCH   4  18
BRANCH   8  24
ATOM     24  O   UNL     1      85.237  55.171  41.417  1.00  0.00    -0.507 OA
ATOM     25  H   UNL     1      85.937  55.858  41.330  1.00  0.00     0.293 HD
ENDBRANCH   8  24
TORSDOF 2
ENDMDL
MODEL 5
REMARK VINA RESULT:    -9.059      1.422      6.456
REMARK INTER + INTRA:         -10.198
REMARK INTER:                  -9.825
REMARK INTRA:                  -0.373
REMARK UNBOUND:                -0.344
REMARK SMILES CC1(C)C=Cc2c(cc(O)c3c2OC(c2ccccc2)CC3=O)O1
REMARK SMILES IDX 23 1 22 2 21 3 14 4 13 5 12 6 11 7 9 8 8 9 7 10 6 11 5 12
REMARK SMILES IDX 4 13 2 14 24 15 1 16 3 17 15 18 16 19 20 20 17 21 19 22
REMARK SMILES IDX 18 23 10 24
REMARK H PARENT 10 25
ROOT
ATOM      1  O   UNL     1      87.093  50.251  47.972  1.00  0.00    -0.294 OA
ATOM      2  C   UNL     1      87.331  50.727  46.864  1.00  0.00     0.174 C 
ATOM      3  C   UNL     1      88.343  50.140  45.926  1.00  0.00     0.131 C 
ATOM      4  C   UNL     1      87.892  50.441  44.506  1.00  0.00     0.211 C 
ATOM      5  O   UNL     1      87.803  51.859  44.298  1.00  0.00    -0.484 OA
ATOM      6  C   UNL     1      86.938  52.485  45.166  1.00  0.00     0.145 A 
ATOM      7  C   UNL     1      86.652  51.966  46.434  1.00  0.00     0.102 A 
ATOM      8  C   UNL     1      85.764  52.635  47.280  1.00  0.00     0.133 A 
ATOM      9  C   UNL     1      85.173  53.824  46.870  1.00  0.00     0.094 A 
ATOM     10  C   UNL     1      85.473  54.358  45.615  1.00  0.00     0.135 A 
ATOM     11  C   UNL     1      86.359  53.699  44.754  1.00  0.00     0.060 A 
ATOM     12  C   UNL     1      86.642  54.285  43.449  1.00  0.00     0.015 C 
ATOM     13  C   UNL     1      86.063  55.447  43.135  1.00  0.00     0.021 C 
ATOM     14  C   UNL     1      85.127  56.187  44.060  1.00  0.00     0.122 C 
ATOM     15  O   UNL     1      84.844  55.533  45.314  1.00  0.00    -0.483 OA
ATOM     16  C   UNL     1      83.776  56.380  43.363  1.00  0.00     0.061 C 
ATOM     17  C   UNL     1      85.730  57.553  44.407  1.00  0.00     0.061 C 
ENDROOT
BRANCH   4  18
ATOM     18  C   UNL     1      88.868  49.858  43.502  1.00  0.00    -0.007 A 
ATOM     19  C   UNL     1      88.918  50.323  42.178  1.00  0.00     0.007 A 
ATOM     20  C   UNL     1      89.768  48.858  43.898  1.00  0.00     0.007 A 
ATOM     21  C   UNL     1      89.839  49.792  41.272  1.00  0.00     0.000 A 
ATOM     22  C   UNL     1      90.689  48.329  42.991  1.00  0.00     0.000 A 
ATOM     23  C   UNL     1      90.723  48.796  41.679  1.00  0.00     0.000 A 
ENDBRANCH   4  18
BRANCH   8  24
ATOM     24  O   UNL     1      85.437  52.183  48.529  1.00  0.00    -0.507 OA
ATOM     25  H   UNL     1      86.267  52.071  49.046  1.00  0.00     0.293 HD
ENDBRANCH   8  24
TORSDOF 2
ENDMDL
MODEL 6
REMARK VINA RESULT:    -8.940      3.919      5.991
REMARK INTER + INTRA:         -10.068
REMARK INTER:                  -9.693
REMARK INTRA:                  -0.375
REMARK UNBOUND:                -0.344
REMARK SMILES CC1(C)C=Cc2c(cc(O)c3c2OC(c2ccccc2)CC3=O)O1
REMARK SMILES IDX 23 1 22 2 21 3 14 4 13 5 12 6 11 7 9 8 8 9 7 10 6 11 5 12
REMARK SMILES IDX 4 13 2 14 24 15 1 16 3 17 15 18 16 19 20 20 17 21 19 22
REMARK SMILES IDX 18 23 10 24
REMARK H PARENT 10 25
ROOT
ATOM      1  O   UNL     1      84.957  54.177  42.951  1.00  0.00    -0.294 OA
ATOM      2  C   UNL     1      84.968  52.950  43.021  1.00  0.00     0.174 C 
ATOM      3  C   UNL     1      83.761  52.147  43.407  1.00  0.00     0.131 C 
ATOM      4  C   UNL     1      83.859  50.797  42.716  1.00  0.00     0.211 C 
ATOM      5  O   UNL     1      85.051  50.108  43.126  1.00  0.00    -0.484 OA
ATOM      6  C   UNL     1      86.205  50.811  42.863  1.00  0.00     0.145 A 
ATOM      7  C   UNL     1      86.222  52.209  42.780  1.00  0.00     0.102 A 
ATOM      8  C   UNL     1      87.417  52.879  42.508  1.00  0.00     0.133 A 
ATOM      9  C   UNL     1      88.594  52.161  42.331  1.00  0.00     0.094 A 
ATOM     10  C   UNL     1      88.586  50.768  42.436  1.00  0.00     0.135 A 
ATOM     11  C   UNL     1      87.397  50.082  42.706  1.00  0.00     0.060 A 
ATOM     12  C   UNL     1      87.429  48.626  42.801  1.00  0.00     0.015 C 
ATOM     13  C   UNL     1      88.602  48.005  42.653  1.00  0.00     0.021 C 
ATOM     14  C   UNL     1      89.899  48.730  42.388  1.00  0.00     0.122 C 
ATOM     15  O   UNL     1      89.797  50.162  42.252  1.00  0.00    -0.483 OA
ATOM     16  C   UNL     1      90.507  48.218  41.078  1.00  0.00     0.061 C 
ATOM     17  C   UNL     1      90.871  48.471  43.545  1.00  0.00     0.061 C 
ENDROOT
BRANCH   4  18
ATOM     18  C   UNL     1      82.656  49.936  43.053  1.00  0.00    -0.007 A 
ATOM     19  C   UNL     1      81.348  50.379  42.801  1.00  0.00     0.007 A 
ATOM     20  C   UNL     1      82.840  48.655  43.595  1.00  0.00     0.007 A 
ATOM     21  C   UNL     1      80.252  49.564  43.094  1.00  0.00     0.000 A 
ATOM     22  C   UNL     1      81.743  47.842  43.886  1.00  0.00     0.000 A 
ATOM     23  C   UNL     1      80.450  48.297  43.637  1.00  0.00     0.000 A 
ENDBRANCH   4  18
BRANCH   8  24
ATOM     24  O   UNL     1      87.505  54.241  42.410  1.00  0.00    -0.507 OA
ATOM     25  H   UNL     1      87.323  54.496  41.477  1.00  0.00     0.293 HD
ENDBRANCH   8  24
TORSDOF 2
ENDMDL
MODEL 7
REMARK VINA RESULT:    -8.889      5.788      7.448
REMARK INTER + INTRA:         -10.013
REMARK INTER:                  -9.633
REMARK INTRA:                  -0.380
REMARK UNBOUND:                -0.344
REMARK SMILES CC1(C)C=Cc2c(cc(O)c3c2OC(c2ccccc2)CC3=O)O1
REMARK SMILES IDX 23 1 22 2 21 3 14 4 13 5 12 6 11 7 9 8 8 9 7 10 6 11 5 12
REMARK SMILES IDX 4 13 2 14 24 15 1 16 3 17 15 18 16 19 20 20 17 21 19 22
REMARK SMILES IDX 18 23 10 24
REMARK H PARENT 10 25
ROOT
ATOM      1  O   UNL     1      84.735  43.532  42.526  1.00  0.00    -0.294 OA
ATOM      2  C   UNL     1      84.874  44.752  42.584  1.00  0.00     0.174 C 
ATOM      3  C   UNL     1      83.715  45.704  42.595  1.00  0.00     0.131 C 
ATOM      4  C   UNL     1      84.133  46.939  43.377  1.00  0.00     0.211 C 
ATOM      5  O   UNL     1      85.268  47.564  42.758  1.00  0.00    -0.484 OA
ATOM      6  C   UNL     1      86.359  46.732  42.652  1.00  0.00     0.145 A 
ATOM      7  C   UNL     1      86.229  45.340  42.581  1.00  0.00     0.102 A 
ATOM      8  C   UNL     1      87.366  44.535  42.476  1.00  0.00     0.133 A 
ATOM      9  C   UNL     1      88.628  45.115  42.430  1.00  0.00     0.094 A 
ATOM     10  C   UNL     1      88.762  46.505  42.476  1.00  0.00     0.135 A 
ATOM     11  C   UNL     1      87.633  47.325  42.583  1.00  0.00     0.060 A 
ATOM     12  C   UNL     1      87.814  48.772  42.635  1.00  0.00     0.015 C 
ATOM     13  C   UNL     1      89.054  49.260  42.551  1.00  0.00     0.021 C 
ATOM     14  C   UNL     1      90.282  48.393  42.408  1.00  0.00     0.122 C 
ATOM     15  O   UNL     1      90.045  46.971  42.415  1.00  0.00    -0.483 OA
ATOM     16  C   UNL     1      91.238  48.674  43.572  1.00  0.00     0.061 C 
ATOM     17  C   UNL     1      90.977  48.712  41.079  1.00  0.00     0.061 C 
ENDROOT
BRANCH   4  18
ATOM     18  C   UNL     1      82.996  47.940  43.441  1.00  0.00    -0.007 A 
ATOM     19  C   UNL     1      83.232  49.321  43.346  1.00  0.00     0.007 A 
ATOM     20  C   UNL     1      81.672  47.491  43.564  1.00  0.00     0.007 A 
ATOM     21  C   UNL     1      82.172  50.229  43.382  1.00  0.00     0.000 A 
ATOM     22  C   UNL     1      80.613  48.401  43.599  1.00  0.00     0.000 A 
ATOM     23  C   UNL     1      80.863  49.768  43.510  1.00  0.00     0.000 A 
ENDBRANCH   4  18
BRANCH   8  24
ATOM     24  O   UNL     1      87.312  43.170  42.407  1.00  0.00    -0.507 OA
ATOM     25  H   UNL     1      88.019  42.802  42.985  1.00  0.00     0.293 HD
ENDBRANCH   8  24
TORSDOF 2
ENDMDL
MODEL 8
REMARK VINA RESULT:    -8.778      2.715      3.847
REMARK INTER + INTRA:          -9.893
REMARK INTER:                  -9.548
REMARK INTRA:                  -0.344
REMARK UNBOUND:                -0.344
REMARK SMILES CC1(C)C=Cc2c(cc(O)c3c2OC(c2ccccc2)CC3=O)O1
REMARK SMILES IDX 23 1 22 2 21 3 14 4 13 5 12 6 11 7 9 8 8 9 7 10 6 11 5 12
REMARK SMILES IDX 4 13 2 14 24 15 1 16 3 17 15 18 16 19 20 20 17 21 19 22
REMARK SMILES IDX 18 23 10 24
REMARK H PARENT 10 25
ROOT
ATOM      1  O   UNL     1      82.937  49.348  44.139  1.00  0.00    -0.294 OA
ATOM      2  C   UNL     1      84.034  49.894  44.240  1.00  0.00     0.174 C 
ATOM      3  C   UNL     1      84.200  51.302  44.729  1.00  0.00     0.131 C 
ATOM      4  C   UNL     1      85.555  51.402  45.410  1.00  0.00     0.211 C 
ATOM      5  O   UNL     1      86.606  51.083  44.485  1.00  0.00    -0.484 OA
ATOM      6  C   UNL     1      86.490  49.824  43.941  1.00  0.00     0.145 A 
ATOM      7  C   UNL     1      85.254  49.180  43.811  1.00  0.00     0.102 A 
ATOM      8  C   UNL     1      85.186  47.901  43.254  1.00  0.00     0.133 A 
ATOM      9  C   UNL     1      86.344  47.269  42.816  1.00  0.00     0.094 A 
ATOM     10  C   UNL     1      87.577  47.917  42.922  1.00  0.00     0.135 A 
ATOM     11  C   UNL     1      87.662  49.198  43.479  1.00  0.00     0.060 A 
ATOM     12  C   UNL     1      88.969  49.838  43.578  1.00  0.00     0.015 C 
ATOM     13  C   UNL     1      90.035  49.185  43.106  1.00  0.00     0.021 C 
ATOM     14  C   UNL     1      89.958  47.815  42.477  1.00  0.00     0.122 C 
ATOM     15  O   UNL     1      88.649  47.211  42.455  1.00  0.00    -0.483 OA
ATOM     16  C   UNL     1      90.862  46.851  43.254  1.00  0.00     0.061 C 
ATOM     17  C   UNL     1      90.424  47.899  41.019  1.00  0.00     0.061 C 
ENDROOT
BRANCH   4  18
ATOM     18  C   UNL     1      85.781  52.803  45.945  1.00  0.00    -0.007 A 
ATOM     19  C   UNL     1      85.435  53.148  47.261  1.00  0.00     0.007 A 
ATOM     20  C   UNL     1      86.380  53.776  45.130  1.00  0.00     0.007 A 
ATOM     21  C   UNL     1      85.672  54.436  47.745  1.00  0.00     0.000 A 
ATOM     22  C   UNL     1      86.618  55.063  45.617  1.00  0.00     0.000 A 
ATOM     23  C   UNL     1      86.263  55.393  46.923  1.00  0.00     0.000 A 
ENDBRANCH   4  18
BRANCH   8  24
ATOM     24  O   UNL     1      84.013  47.213  43.102  1.00  0.00    -0.507 OA
ATOM     25  H   UNL     1      83.529  47.593  42.333  1.00  0.00     0.293 HD
ENDBRANCH   8  24
TORSDOF 2
ENDMDL
MODEL 9
REMARK VINA RESULT:    -8.714      5.119      7.464
REMARK INTER + INTRA:          -9.823
REMARK INTER:                  -9.458
REMARK INTRA:                  -0.364
REMARK UNBOUND:                -0.344
REMARK SMILES CC1(C)C=Cc2c(cc(O)c3c2OC(c2ccccc2)CC3=O)O1
REMARK SMILES IDX 23 1 22 2 21 3 14 4 13 5 12 6 11 7 9 8 8 9 7 10 6 11 5 12
REMARK SMILES IDX 4 13 2 14 24 15 1 16 3 17 15 18 16 19 20 20 17 21 19 22
REMARK SMILES IDX 18 23 10 24
REMARK H PARENT 10 25
ROOT
ATOM      1  O   UNL     1      86.690  48.261  43.803  1.00  0.00    -0.294 OA
ATOM      2  C   UNL     1      85.613  48.780  43.517  1.00  0.00     0.174 C 
ATOM      3  C   UNL     1      84.323  48.015  43.490  1.00  0.00     0.131 C 
ATOM      4  C   UNL     1      83.202  48.981  43.837  1.00  0.00     0.211 C 
ATOM      5  O   UNL     1      83.150  50.053  42.882  1.00  0.00    -0.484 OA
ATOM      6  C   UNL     1      84.323  50.767  42.800  1.00  0.00     0.145 A 
ATOM      7  C   UNL     1      85.563  50.201  43.117  1.00  0.00     0.102 A 
ATOM      8  C   UNL     1      86.728  50.966  43.021  1.00  0.00     0.133 A 
ATOM      9  C   UNL     1      86.660  52.288  42.599  1.00  0.00     0.094 A 
ATOM     10  C   UNL     1      85.428  52.851  42.258  1.00  0.00     0.135 A 
ATOM     11  C   UNL     1      84.252  52.099  42.351  1.00  0.00     0.060 A 
ATOM     12  C   UNL     1      82.983  52.725  41.993  1.00  0.00     0.015 C 
ATOM     13  C   UNL     1      82.998  53.989  41.563  1.00  0.00     0.021 C 
ATOM     14  C   UNL     1      84.259  54.808  41.430  1.00  0.00     0.122 C 
ATOM     15  O   UNL     1      85.474  54.154  41.848  1.00  0.00    -0.483 OA
ATOM     16  C   UNL     1      84.135  56.071  42.290  1.00  0.00     0.061 C 
ATOM     17  C   UNL     1      84.458  55.200  39.962  1.00  0.00     0.061 C 
ENDROOT
BRANCH   4  18
ATOM     18  C   UNL     1      81.864  48.266  43.844  1.00  0.00    -0.007 A 
ATOM     19  C   UNL     1      81.784  46.864  43.823  1.00  0.00     0.007 A 
ATOM     20  C   UNL     1      80.674  49.006  43.907  1.00  0.00     0.007 A 
ATOM     21  C   UNL     1      80.546  46.221  43.855  1.00  0.00     0.000 A 
ATOM     22  C   UNL     1      79.436  48.361  43.940  1.00  0.00     0.000 A 
ATOM     23  C   UNL     1      79.372  46.970  43.912  1.00  0.00     0.000 A 
ENDBRANCH   4  18
BRANCH   8  24
ATOM     24  O   UNL     1      87.971  50.477  43.319  1.00  0.00    -0.507 OA
ATOM     25  H   UNL     1      88.643  51.092  42.947  1.00  0.00     0.293 HD
ENDBRANCH   8  24
TORSDOF 2
ENDMDL
