MODEL 1
REMARK VINA RESULT:   -10.056      0.000      0.000
REMARK INTER + INTRA:         -13.424
REMARK INTER:                 -12.476
REMARK INTRA:                  -0.948
REMARK UNBOUND:                -1.017
REMARK SMILES CC(C)=CCc1cc([C@@H]2CC(=O)c3c(O)cc(O)cc3O2)cc2c1OC(C)(C)C=C2
REMARK SMILES IDX 6 1 7 2 8 3 22 4 23 5 24 6 25 7 26 8 27 9 28 10 29 11 30 12
REMARK SMILES IDX 5 13 4 14 2 15 1 16 3 17 9 18 10 19 21 20 11 21 20 22 12 23
REMARK SMILES IDX 13 24 19 25 14 26 17 27 16 28 15 29 18 31
REMARK H PARENT 15 30 18 32
ROOT
ATOM      1  C   UNL     1      87.237  49.933  44.037  1.00  0.00    -0.001 A 
ATOM      2  C   UNL     1      85.874  49.654  44.239  1.00  0.00     0.015 A 
ATOM      3  C   UNL     1      85.265  48.536  43.651  1.00  0.00    -0.006 A 
ATOM      4  C   UNL     1      86.049  47.682  42.860  1.00  0.00     0.019 A 
ATOM      5  C   UNL     1      87.411  47.938  42.658  1.00  0.00     0.017 A 
ATOM      6  C   UNL     1      88.005  49.056  43.252  1.00  0.00     0.131 A 
ATOM      7  O   UNL     1      89.328  49.366  43.092  1.00  0.00    -0.483 OA
ATOM      8  C   UNL     1      90.203  48.416  42.452  1.00  0.00     0.122 C 
ATOM      9  C   UNL     1      91.131  47.861  43.539  1.00  0.00     0.061 C 
ATOM     10  C   UNL     1      91.024  49.221  41.436  1.00  0.00     0.061 C 
ATOM     11  C   UNL     1      89.517  47.274  41.741  1.00  0.00     0.021 C 
ATOM     12  C   UNL     1      88.204  47.044  41.829  1.00  0.00     0.012 C 
ENDROOT
BRANCH   1  13
ATOM     13  C   UNL     1      87.849  51.142  44.709  1.00  0.00     0.066 C 
BRANCH  13  14
ATOM     14  C   UNL     1      87.084  51.552  45.939  1.00  0.00    -0.023 C 
ATOM     15  C   UNL     1      87.231  51.113  47.205  1.00  0.00    -0.080 C 
ATOM     16  C   UNL     1      86.342  51.637  48.304  1.00  0.00     0.039 C 
ATOM     17  C   UNL     1      88.249  50.106  47.664  1.00  0.00     0.039 C 
ENDBRANCH  13  14
ENDBRANCH   1  13
BRANCH   3  18
ATOM     18  C   UNL     1      83.799  48.247  43.916  1.00  0.00     0.211 C 
ATOM     19  C   UNL     1      83.436  46.850  43.430  1.00  0.00     0.131 C 
ATOM     20  O   UNL     1      82.998  49.243  43.257  1.00  0.00    -0.484 OA
ATOM     21  C   UNL     1      81.984  46.614  43.729  1.00  0.00     0.174 C 
ATOM     22  C   UNL     1      81.653  49.036  43.410  1.00  0.00     0.138 A 
ATOM     23  O   UNL     1      81.520  45.501  43.967  1.00  0.00    -0.294 OA
ATOM     24  C   UNL     1      81.090  47.784  43.664  1.00  0.00     0.102 A 
ATOM     25  C   UNL     1      80.829  50.152  43.270  1.00  0.00     0.093 A 
ATOM     26  C   UNL     1      79.704  47.657  43.813  1.00  0.00     0.133 A 
ATOM     27  C   UNL     1      79.451  50.013  43.419  1.00  0.00     0.123 A 
ATOM     28  C   UNL     1      78.880  48.773  43.696  1.00  0.00     0.093 A 
BRANCH  26  29
ATOM     29  O   UNL     1      79.088  46.462  44.067  1.00  0.00    -0.507 OA
ATOM     30  H   UNL     1      78.594  46.544  44.914  1.00  0.00     0.293 HD
ENDBRANCH  26  29
BRANCH  27  31
ATOM     31  O   UNL     1      78.684  51.132  43.287  1.00  0.00    -0.508 OA
ATOM     32  H   UNL     1      77.849  50.892  42.849  1.00  0.00     0.293 HD
ENDBRANCH  27  31
ENDBRANCH   3  18
TORSDOF 5
ENDMDL
MODEL 2
REMARK VINA RESULT:    -9.818      1.700      3.672
REMARK INTER + INTRA:         -13.130
REMARK INTER:                 -12.245
REMARK INTRA:                  -0.885
REMARK UNBOUND:                -1.017
REMARK SMILES CC(C)=CCc1cc([C@@H]2CC(=O)c3c(O)cc(O)cc3O2)cc2c1OC(C)(C)C=C2
REMARK SMILES IDX 6 1 7 2 8 3 22 4 23 5 24 6 25 7 26 8 27 9 28 10 29 11 30 12
REMARK SMILES IDX 5 13 4 14 2 15 1 16 3 17 9 18 10 19 21 20 11 21 20 22 12 23
REMARK SMILES IDX 13 24 19 25 14 26 17 27 16 28 15 29 18 31
REMARK H PARENT 15 30 18 32
ROOT
ATOM      1  C   UNL     1      87.026  46.642  42.525  1.00  0.00    -0.001 A 
ATOM      2  C   UNL     1      85.664  46.638  42.874  1.00  0.00     0.015 A 
ATOM      3  C   UNL     1      85.072  47.742  43.506  1.00  0.00    -0.006 A 
ATOM      4  C   UNL     1      85.865  48.868  43.774  1.00  0.00     0.019 A 
ATOM      5  C   UNL     1      87.220  48.894  43.421  1.00  0.00     0.017 A 
ATOM      6  C   UNL     1      87.797  47.786  42.791  1.00  0.00     0.131 A 
ATOM      7  O   UNL     1      89.115  47.745  42.424  1.00  0.00    -0.483 OA
ATOM      8  C   UNL     1      89.908  48.945  42.506  1.00  0.00     0.122 C 
ATOM      9  C   UNL     1      90.191  49.391  41.067  1.00  0.00     0.061 C 
ATOM     10  C   UNL     1      91.221  48.534  43.185  1.00  0.00     0.061 C 
ATOM     11  C   UNL     1      89.288  50.086  43.277  1.00  0.00     0.021 C 
ATOM     12  C   UNL     1      88.026  50.068  43.714  1.00  0.00     0.012 C 
ENDROOT
BRANCH   1  13
ATOM     13  C   UNL     1      87.612  45.433  41.829  1.00  0.00     0.066 C 
BRANCH  13  14
ATOM     14  C   UNL     1      88.339  44.528  42.787  1.00  0.00    -0.023 C 
ATOM     15  C   UNL     1      87.823  43.635  43.656  1.00  0.00    -0.080 C 
ATOM     16  C   UNL     1      88.729  42.832  44.554  1.00  0.00     0.039 C 
ATOM     17  C   UNL     1      86.360  43.333  43.826  1.00  0.00     0.039 C 
ENDBRANCH  13  14
ENDBRANCH   1  13
BRANCH   3  18
ATOM     18  C   UNL     1      83.592  47.716  43.841  1.00  0.00     0.211 C 
ATOM     19  C   UNL     1      82.988  46.367  43.475  1.00  0.00     0.131 C 
ATOM     20  O   UNL     1      82.933  48.781  43.135  1.00  0.00    -0.484 OA
ATOM     21  C   UNL     1      81.532  46.393  43.840  1.00  0.00     0.174 C 
ATOM     22  C   UNL     1      81.580  48.809  43.348  1.00  0.00     0.138 A 
ATOM     23  O   UNL     1      80.907  45.390  44.177  1.00  0.00    -0.294 OA
ATOM     24  C   UNL     1      80.835  47.686  43.716  1.00  0.00     0.102 A 
ATOM     25  C   UNL     1      80.940  50.032  43.152  1.00  0.00     0.093 A 
ATOM     26  C   UNL     1      79.455  47.798  43.921  1.00  0.00     0.133 A 
ATOM     27  C   UNL     1      79.566  50.130  43.357  1.00  0.00     0.123 A 
ATOM     28  C   UNL     1      78.816  49.023  43.746  1.00  0.00     0.093 A 
BRANCH  26  29
ATOM     29  O   UNL     1      78.668  46.740  44.285  1.00  0.00    -0.507 OA
ATOM     30  H   UNL     1      78.306  46.330  43.466  1.00  0.00     0.293 HD
ENDBRANCH  26  29
BRANCH  27  31
ATOM     31  O   UNL     1      78.984  51.348  43.165  1.00  0.00    -0.508 OA
ATOM     32  H   UNL     1      79.243  51.686  42.290  1.00  0.00     0.293 HD
ENDBRANCH  27  31
ENDBRANCH   3  18
TORSDOF 5
ENDMDL
MODEL 3
REMARK VINA RESULT:    -9.667      4.299      7.148
REMARK INTER + INTRA:         -12.945
REMARK INTER:                 -12.370
REMARK INTRA:                  -0.575
REMARK UNBOUND:                -1.017
REMARK SMILES CC(C)=CCc1cc([C@@H]2CC(=O)c3c(O)cc(O)cc3O2)cc2c1OC(C)(C)C=C2
REMARK SMILES IDX 6 1 7 2 8 3 22 4 23 5 24 6 25 7 26 8 27 9 28 10 29 11 30 12
REMARK SMILES IDX 5 13 4 14 2 15 1 16 3 17 9 18 10 19 21 20 11 21 20 22 12 23
REMARK SMILES IDX 13 24 19 25 14 26 17 27 16 28 15 29 18 31
REMARK H PARENT 15 30 18 32
ROOT
ATOM      1  C   UNL     1      87.245  50.067  44.495  1.00  0.00    -0.001 A 
ATOM      2  C   UNL     1      87.023  51.385  44.932  1.00  0.00     0.015 A 
ATOM      3  C   UNL     1      85.731  51.931  44.969  1.00  0.00    -0.006 A 
ATOM      4  C   UNL     1      84.651  51.128  44.573  1.00  0.00     0.019 A 
ATOM      5  C   UNL     1      84.853  49.809  44.148  1.00  0.00     0.017 A 
ATOM      6  C   UNL     1      86.147  49.278  44.117  1.00  0.00     0.131 A 
ATOM      7  O   UNL     1      86.413  47.999  43.708  1.00  0.00    -0.483 OA
ATOM      8  C   UNL     1      85.321  47.088  43.480  1.00  0.00     0.122 C 
ATOM      9  C   UNL     1      85.366  46.048  44.606  1.00  0.00     0.061 C 
ATOM     10  C   UNL     1      85.615  46.407  42.138  1.00  0.00     0.061 C 
ATOM     11  C   UNL     1      83.948  47.716  43.427  1.00  0.00     0.021 C 
ATOM     12  C   UNL     1      83.720  48.995  43.736  1.00  0.00     0.012 C 
ENDROOT
BRANCH   1  13
ATOM     13  C   UNL     1      88.656  49.521  44.490  1.00  0.00     0.066 C 
BRANCH  13  14
ATOM     14  C   UNL     1      89.186  49.338  43.093  1.00  0.00    -0.023 C 
ATOM     15  C   UNL     1      90.405  48.913  42.705  1.00  0.00    -0.080 C 
ATOM     16  C   UNL     1      90.751  48.817  41.242  1.00  0.00     0.039 C 
ATOM     17  C   UNL     1      91.514  48.492  43.630  1.00  0.00     0.039 C 
ENDBRANCH  13  14
ENDBRANCH   1  13
BRANCH   3  18
ATOM     18  C   UNL     1      85.524  53.346  45.475  1.00  0.00     0.211 C 
ATOM     19  C   UNL     1      84.194  53.459  46.207  1.00  0.00     0.131 C 
ATOM     20  O   UNL     1      85.575  54.255  44.362  1.00  0.00    -0.484 OA
ATOM     21  C   UNL     1      84.048  54.870  46.697  1.00  0.00     0.174 C 
ATOM     22  C   UNL     1      85.356  55.558  44.723  1.00  0.00     0.138 A 
ATOM     23  O   UNL     1      83.424  55.167  47.714  1.00  0.00    -0.294 OA
ATOM     24  C   UNL     1      84.638  55.931  45.862  1.00  0.00     0.102 A 
ATOM     25  C   UNL     1      85.867  56.537  43.873  1.00  0.00     0.093 A 
ATOM     26  C   UNL     1      84.464  57.286  46.165  1.00  0.00     0.133 A 
ATOM     27  C   UNL     1      85.684  57.882  44.184  1.00  0.00     0.123 A 
ATOM     28  C   UNL     1      84.991  58.267  45.329  1.00  0.00     0.093 A 
BRANCH  26  29
ATOM     29  O   UNL     1      83.775  57.721  47.265  1.00  0.00    -0.507 OA
ATOM     30  H   UNL     1      84.401  57.759  48.024  1.00  0.00     0.293 HD
ENDBRANCH  26  29
BRANCH  27  31
ATOM     31  O   UNL     1      86.211  58.806  43.331  1.00  0.00    -0.508 OA
ATOM     32  H   UNL     1      87.181  58.787  43.406  1.00  0.00     0.293 HD
ENDBRANCH  27  31
ENDBRANCH   3  18
TORSDOF 5
ENDMDL
MODEL 4
REMARK VINA RESULT:    -9.646      3.493      6.741
REMARK INTER + INTRA:         -12.919
REMARK INTER:                 -11.959
REMARK INTRA:                  -0.959
REMARK UNBOUND:                -1.017
REMARK SMILES CC(C)=CCc1cc([C@@H]2CC(=O)c3c(O)cc(O)cc3O2)cc2c1OC(C)(C)C=C2
REMARK SMILES IDX 6 1 7 2 8 3 22 4 23 5 24 6 25 7 26 8 27 9 28 10 29 11 30 12
REMARK SMILES IDX 5 13 4 14 2 15 1 16 3 17 9 18 10 19 21 20 11 21 20 22 12 23
REMARK SMILES IDX 13 24 19 25 14 26 17 27 16 28 15 29 18 31
REMARK H PARENT 15 30 18 32
ROOT
ATOM      1  C   UNL     1      87.359  48.018  42.401  1.00  0.00    -0.001 A 
ATOM      2  C   UNL     1      87.211  49.371  42.754  1.00  0.00     0.015 A 
ATOM      3  C   UNL     1      86.104  49.813  43.492  1.00  0.00    -0.006 A 
ATOM      4  C   UNL     1      85.141  48.873  43.889  1.00  0.00     0.019 A 
ATOM      5  C   UNL     1      85.279  47.519  43.557  1.00  0.00     0.017 A 
ATOM      6  C   UNL     1      86.389  47.092  42.821  1.00  0.00     0.131 A 
ATOM      7  O   UNL     1      86.582  45.786  42.460  1.00  0.00    -0.483 OA
ATOM      8  C   UNL     1      85.723  44.767  43.010  1.00  0.00     0.122 C 
ATOM      9  C   UNL     1      86.574  43.947  43.987  1.00  0.00     0.061 C 
ATOM     10  C   UNL     1      85.306  43.886  41.826  1.00  0.00     0.061 C 
ATOM     11  C   UNL     1      84.485  45.269  43.715  1.00  0.00     0.021 C 
ATOM     12  C   UNL     1      84.267  46.561  43.972  1.00  0.00     0.012 C 
ENDROOT
BRANCH   1  13
ATOM     13  C   UNL     1      88.581  47.589  41.619  1.00  0.00     0.066 C 
BRANCH  13  14
ATOM     14  C   UNL     1      89.848  47.757  42.416  1.00  0.00    -0.023 C 
ATOM     15  C   UNL     1      90.670  48.823  42.472  1.00  0.00    -0.080 C 
ATOM     16  C   UNL     1      91.913  48.786  43.323  1.00  0.00     0.039 C 
ATOM     17  C   UNL     1      90.463  50.121  41.740  1.00  0.00     0.039 C 
ENDBRANCH  13  14
ENDBRANCH   1  13
BRANCH   3  18
ATOM     18  C   UNL     1      85.992  51.275  43.883  1.00  0.00     0.211 C 
ATOM     19  C   UNL     1      87.015  52.109  43.122  1.00  0.00     0.131 C 
ATOM     20  O   UNL     1      86.185  51.397  45.302  1.00  0.00    -0.484 OA
ATOM     21  C   UNL     1      86.850  53.542  43.536  1.00  0.00     0.174 C 
ATOM     22  C   UNL     1      86.140  52.695  45.740  1.00  0.00     0.138 A 
ATOM     23  O   UNL     1      87.098  54.488  42.791  1.00  0.00    -0.294 OA
ATOM     24  C   UNL     1      86.431  53.792  44.926  1.00  0.00     0.102 A 
ATOM     25  C   UNL     1      85.810  52.892  47.080  1.00  0.00     0.093 A 
ATOM     26  C   UNL     1      86.357  55.088  45.448  1.00  0.00     0.133 A 
ATOM     27  C   UNL     1      85.742  54.187  47.587  1.00  0.00     0.123 A 
ATOM     28  C   UNL     1      86.007  55.291  46.781  1.00  0.00     0.093 A 
BRANCH  26  29
ATOM     29  O   UNL     1      86.625  56.207  44.706  1.00  0.00    -0.507 OA
ATOM     30  H   UNL     1      87.585  56.408  44.790  1.00  0.00     0.293 HD
ENDBRANCH  26  29
BRANCH  27  31
ATOM     31  O   UNL     1      85.404  54.334  48.900  1.00  0.00    -0.508 OA
ATOM     32  H   UNL     1      84.575  53.852  49.068  1.00  0.00     0.293 HD
ENDBRANCH  27  31
ENDBRANCH   3  18
TORSDOF 5
ENDMDL
MODEL 5
REMARK VINA RESULT:    -9.534      3.927      8.192
REMARK INTER + INTRA:         -12.780
REMARK INTER:                 -11.950
REMARK INTRA:                  -0.830
REMARK UNBOUND:                -1.017
REMARK SMILES CC(C)=CCc1cc([C@@H]2CC(=O)c3c(O)cc(O)cc3O2)cc2c1OC(C)(C)C=C2
REMARK SMILES IDX 6 1 7 2 8 3 22 4 23 5 24 6 25 7 26 8 27 9 28 10 29 11 30 12
REMARK SMILES IDX 5 13 4 14 2 15 1 16 3 17 9 18 10 19 21 20 11 21 20 22 12 23
REMARK SMILES IDX 13 24 19 25 14 26 17 27 16 28 15 29 18 31
REMARK H PARENT 15 30 18 32
ROOT
ATOM      1  C   UNL     1      85.657  54.468  43.262  1.00  0.00    -0.001 A 
ATOM      2  C   UNL     1      86.289  53.244  42.981  1.00  0.00     0.015 A 
ATOM      3  C   UNL     1      86.987  52.541  43.975  1.00  0.00    -0.006 A 
ATOM      4  C   UNL     1      87.032  53.077  45.270  1.00  0.00     0.019 A 
ATOM      5  C   UNL     1      86.397  54.288  45.570  1.00  0.00     0.017 A 
ATOM      6  C   UNL     1      85.705  54.978  44.570  1.00  0.00     0.131 A 
ATOM      7  O   UNL     1      85.066  56.168  44.795  1.00  0.00    -0.483 OA
ATOM      8  C   UNL     1      84.927  56.650  46.146  1.00  0.00     0.122 C 
ATOM      9  C   UNL     1      83.443  56.526  46.512  1.00  0.00     0.061 C 
ATOM     10  C   UNL     1      85.326  58.130  46.106  1.00  0.00     0.061 C 
ATOM     11  C   UNL     1      85.765  55.938  47.182  1.00  0.00     0.021 C 
ATOM     12  C   UNL     1      86.462  54.830  46.919  1.00  0.00     0.012 C 
ENDROOT
BRANCH   1  13
ATOM     13  C   UNL     1      84.903  55.178  42.158  1.00  0.00     0.066 C 
BRANCH  13  14
ATOM     14  C   UNL     1      83.488  54.679  42.031  1.00  0.00    -0.023 C 
ATOM     15  C   UNL     1      82.715  54.618  40.928  1.00  0.00    -0.080 C 
ATOM     16  C   UNL     1      81.302  54.099  41.013  1.00  0.00     0.039 C 
ATOM     17  C   UNL     1      83.138  55.028  39.545  1.00  0.00     0.039 C 
ENDBRANCH  13  14
ENDBRANCH   1  13
BRANCH   3  18
ATOM     18  C   UNL     1      87.631  51.208  43.645  1.00  0.00     0.211 C 
ATOM     19  C   UNL     1      88.640  51.369  42.516  1.00  0.00     0.131 C 
ATOM     20  O   UNL     1      86.605  50.267  43.284  1.00  0.00    -0.484 OA
ATOM     21  C   UNL     1      89.255  50.028  42.242  1.00  0.00     0.174 C 
ATOM     22  C   UNL     1      87.102  49.041  42.930  1.00  0.00     0.138 A 
ATOM     23  O   UNL     1      90.402  49.888  41.823  1.00  0.00    -0.294 OA
ATOM     24  C   UNL     1      88.394  48.847  42.435  1.00  0.00     0.102 A 
ATOM     25  C   UNL     1      86.238  47.955  43.058  1.00  0.00     0.093 A 
ATOM     26  C   UNL     1      88.829  47.560  42.102  1.00  0.00     0.133 A 
ATOM     27  C   UNL     1      86.682  46.679  42.720  1.00  0.00     0.123 A 
ATOM     28  C   UNL     1      87.975  46.469  42.247  1.00  0.00     0.093 A 
BRANCH  26  29
ATOM     29  O   UNL     1      90.082  47.299  41.615  1.00  0.00    -0.507 OA
ATOM     30  H   UNL     1      90.669  47.087  42.376  1.00  0.00     0.293 HD
ENDBRANCH  26  29
BRANCH  27  31
ATOM     31  O   UNL     1      85.807  45.644  42.871  1.00  0.00    -0.508 OA
ATOM     32  H   UNL     1      86.266  44.811  42.667  1.00  0.00     0.293 HD
ENDBRANCH  27  31
ENDBRANCH   3  18
TORSDOF 5
ENDMDL
MODEL 6
REMARK VINA RESULT:    -9.506      3.706      6.524
REMARK INTER + INTRA:         -12.746
REMARK INTER:                 -11.960
REMARK INTRA:                  -0.786
REMARK UNBOUND:                -1.017
REMARK SMILES CC(C)=CCc1cc([C@@H]2CC(=O)c3c(O)cc(O)cc3O2)cc2c1OC(C)(C)C=C2
REMARK SMILES IDX 6 1 7 2 8 3 22 4 23 5 24 6 25 7 26 8 27 9 28 10 29 11 30 12
REMARK SMILES IDX 5 13 4 14 2 15 1 16 3 17 9 18 10 19 21 20 11 21 20 22 12 23
REMARK SMILES IDX 13 24 19 25 14 26 17 27 16 28 15 29 18 31
REMARK H PARENT 15 30 18 32
ROOT
ATOM      1  C   UNL     1      86.781  49.020  43.697  1.00  0.00    -0.001 A 
ATOM      2  C   UNL     1      86.109  50.232  43.935  1.00  0.00     0.015 A 
ATOM      3  C   UNL     1      86.727  51.467  43.687  1.00  0.00    -0.006 A 
ATOM      4  C   UNL     1      88.035  51.474  43.180  1.00  0.00     0.019 A 
ATOM      5  C   UNL     1      88.714  50.276  42.925  1.00  0.00     0.017 A 
ATOM      6  C   UNL     1      88.085  49.052  43.176  1.00  0.00     0.131 A 
ATOM      7  O   UNL     1      88.694  47.847  42.953  1.00  0.00    -0.483 OA
ATOM      8  C   UNL     1      89.954  47.810  42.255  1.00  0.00     0.122 C 
ATOM      9  C   UNL     1      89.683  47.196  40.877  1.00  0.00     0.061 C 
ATOM     10  C   UNL     1      90.856  46.872  43.068  1.00  0.00     0.061 C 
ATOM     11  C   UNL     1      90.646  49.142  42.089  1.00  0.00     0.021 C 
ATOM     12  C   UNL     1      90.072  50.305  42.405  1.00  0.00     0.012 C 
ENDROOT
BRANCH   1  13
ATOM     13  C   UNL     1      86.063  47.715  43.964  1.00  0.00     0.066 C 
BRANCH  13  14
ATOM     14  C   UNL     1      84.627  47.760  43.516  1.00  0.00    -0.023 C 
ATOM     15  C   UNL     1      83.777  46.733  43.314  1.00  0.00    -0.080 C 
ATOM     16  C   UNL     1      82.369  46.987  42.840  1.00  0.00     0.039 C 
ATOM     17  C   UNL     1      84.101  45.280  43.532  1.00  0.00     0.039 C 
ENDBRANCH  13  14
ENDBRANCH   1  13
BRANCH   3  18
ATOM     18  C   UNL     1      85.962  52.755  43.926  1.00  0.00     0.211 C 
ATOM     19  C   UNL     1      86.565  53.890  43.109  1.00  0.00     0.131 C 
ATOM     20  O   UNL     1      85.988  53.064  45.330  1.00  0.00    -0.484 OA
ATOM     21  C   UNL     1      85.763  55.132  43.371  1.00  0.00     0.174 C 
ATOM     22  C   UNL     1      85.352  54.239  45.632  1.00  0.00     0.138 A 
ATOM     23  O   UNL     1      85.620  56.027  42.540  1.00  0.00    -0.294 OA
ATOM     24  C   UNL     1      85.187  55.282  44.719  1.00  0.00     0.102 A 
ATOM     25  C   UNL     1      84.883  54.377  46.938  1.00  0.00     0.093 A 
ATOM     26  C   UNL     1      84.519  56.450  45.106  1.00  0.00     0.133 A 
ATOM     27  C   UNL     1      84.222  55.545  47.310  1.00  0.00     0.123 A 
ATOM     28  C   UNL     1      84.030  56.584  46.403  1.00  0.00     0.093 A 
BRANCH  26  29
ATOM     29  O   UNL     1      84.320  57.508  44.261  1.00  0.00    -0.507 OA
ATOM     30  H   UNL     1      83.408  57.851  44.407  1.00  0.00     0.293 HD
ENDBRANCH  26  29
BRANCH  27  31
ATOM     31  O   UNL     1      83.769  55.633  48.593  1.00  0.00    -0.508 OA
ATOM     32  H   UNL     1      83.370  56.511  48.727  1.00  0.00     0.293 HD
ENDBRANCH  27  31
ENDBRANCH   3  18
TORSDOF 5
ENDMDL
MODEL 7
REMARK VINA RESULT:    -9.363      3.406      7.019
REMARK INTER + INTRA:         -12.569
REMARK INTER:                 -11.536
REMARK INTRA:                  -1.033
REMARK UNBOUND:                -1.017
REMARK SMILES CC(C)=CCc1cc([C@@H]2CC(=O)c3c(O)cc(O)cc3O2)cc2c1OC(C)(C)C=C2
REMARK SMILES IDX 6 1 7 2 8 3 22 4 23 5 24 6 25 7 26 8 27 9 28 10 29 11 30 12
REMARK SMILES IDX 5 13 4 14 2 15 1 16 3 17 9 18 10 19 21 20 11 21 20 22 12 23
REMARK SMILES IDX 13 24 19 25 14 26 17 27 16 28 15 29 18 31
REMARK H PARENT 15 30 18 32
ROOT
ATOM      1  C   UNL     1      86.676  53.094  43.916  1.00  0.00    -0.001 A 
ATOM      2  C   UNL     1      86.946  51.757  43.571  1.00  0.00     0.015 A 
ATOM      3  C   UNL     1      86.915  50.737  44.534  1.00  0.00    -0.006 A 
ATOM      4  C   UNL     1      86.594  51.073  45.858  1.00  0.00     0.019 A 
ATOM      5  C   UNL     1      86.309  52.396  46.216  1.00  0.00     0.017 A 
ATOM      6  C   UNL     1      86.343  53.403  45.245  1.00  0.00     0.131 A 
ATOM      7  O   UNL     1      86.080  54.716  45.528  1.00  0.00    -0.483 OA
ATOM      8  C   UNL     1      85.561  55.068  46.825  1.00  0.00     0.122 C 
ATOM      9  C   UNL     1      84.101  55.492  46.621  1.00  0.00     0.061 C 
ATOM     10  C   UNL     1      86.386  56.272  47.295  1.00  0.00     0.061 C 
ATOM     11  C   UNL     1      85.630  53.981  47.873  1.00  0.00     0.021 C 
ATOM     12  C   UNL     1      85.985  52.724  47.595  1.00  0.00     0.012 C 
ENDROOT
BRANCH   1  13
ATOM     13  C   UNL     1      86.705  54.153  42.836  1.00  0.00     0.066 C 
BRANCH  13  14
ATOM     14  C   UNL     1      85.440  54.161  42.019  1.00  0.00    -0.023 C 
ATOM     15  C   UNL     1      84.459  55.085  42.000  1.00  0.00    -0.080 C 
ATOM     16  C   UNL     1      83.250  54.898  41.119  1.00  0.00     0.039 C 
ATOM     17  C   UNL     1      84.446  56.358  42.801  1.00  0.00     0.039 C 
ENDBRANCH  13  14
ENDBRANCH   1  13
BRANCH   3  18
ATOM     18  C   UNL     1      87.181  49.301  44.122  1.00  0.00     0.211 C 
ATOM     19  C   UNL     1      88.128  49.257  42.931  1.00  0.00     0.131 C 
ATOM     20  O   UNL     1      85.930  48.665  43.806  1.00  0.00    -0.484 OA
ATOM     21  C   UNL     1      88.366  47.818  42.577  1.00  0.00     0.174 C 
ATOM     22  C   UNL     1      86.080  47.371  43.383  1.00  0.00     0.138 A 
ATOM     23  O   UNL     1      89.414  47.414  42.076  1.00  0.00    -0.294 OA
ATOM     24  C   UNL     1      87.248  46.883  42.795  1.00  0.00     0.102 A 
ATOM     25  C   UNL     1      84.978  46.531  43.539  1.00  0.00     0.093 A 
ATOM     26  C   UNL     1      87.323  45.544  42.394  1.00  0.00     0.133 A 
ATOM     27  C   UNL     1      85.064  45.201  43.134  1.00  0.00     0.123 A 
ATOM     28  C   UNL     1      86.231  44.696  42.567  1.00  0.00     0.093 A 
BRANCH  26  29
ATOM     29  O   UNL     1      88.438  45.000  41.815  1.00  0.00    -0.507 OA
ATOM     30  H   UNL     1      89.182  45.635  41.926  1.00  0.00     0.293 HD
ENDBRANCH  26  29
BRANCH  27  31
ATOM     31  O   UNL     1      83.966  44.413  43.315  1.00  0.00    -0.508 OA
ATOM     32  H   UNL     1      83.248  44.954  43.687  1.00  0.00     0.293 HD
ENDBRANCH  27  31
ENDBRANCH   3  18
TORSDOF 5
ENDMDL
MODEL 8
REMARK VINA RESULT:    -9.289      3.861      6.585
REMARK INTER + INTRA:         -12.478
REMARK INTER:                 -11.613
REMARK INTRA:                  -0.865
REMARK UNBOUND:                -1.017
REMARK SMILES CC(C)=CCc1cc([C@@H]2CC(=O)c3c(O)cc(O)cc3O2)cc2c1OC(C)(C)C=C2
REMARK SMILES IDX 6 1 7 2 8 3 22 4 23 5 24 6 25 7 26 8 27 9 28 10 29 11 30 12
REMARK SMILES IDX 5 13 4 14 2 15 1 16 3 17 9 18 10 19 21 20 11 21 20 22 12 23
REMARK SMILES IDX 13 24 19 25 14 26 17 27 16 28 15 29 18 31
REMARK H PARENT 15 30 18 32
ROOT
ATOM      1  C   UNL     1      85.863  49.177  43.825  1.00  0.00    -0.001 A 
ATOM      2  C   UNL     1      85.512  50.410  44.403  1.00  0.00     0.015 A 
ATOM      3  C   UNL     1      86.482  51.384  44.683  1.00  0.00    -0.006 A 
ATOM      4  C   UNL     1      87.820  51.113  44.361  1.00  0.00     0.019 A 
ATOM      5  C   UNL     1      88.185  49.895  43.773  1.00  0.00     0.017 A 
ATOM      6  C   UNL     1      87.208  48.933  43.499  1.00  0.00     0.131 A 
ATOM      7  O   UNL     1      87.498  47.723  42.930  1.00  0.00    -0.483 OA
ATOM      8  C   UNL     1      88.821  47.485  42.411  1.00  0.00     0.122 C 
ATOM      9  C   UNL     1      88.700  47.445  40.883  1.00  0.00     0.061 C 
ATOM     10  C   UNL     1      89.233  46.102  42.931  1.00  0.00     0.061 C 
ATOM     11  C   UNL     1      89.869  48.497  42.809  1.00  0.00     0.021 C 
ATOM     12  C   UNL     1      89.579  49.631  43.453  1.00  0.00     0.012 C 
ENDROOT
BRANCH   1  13
ATOM     13  C   UNL     1      84.777  48.167  43.527  1.00  0.00     0.066 C 
BRANCH  13  14
ATOM     14  C   UNL     1      83.406  48.789  43.557  1.00  0.00    -0.023 C 
ATOM     15  C   UNL     1      82.206  48.175  43.592  1.00  0.00    -0.080 C 
ATOM     16  C   UNL     1      80.934  48.984  43.596  1.00  0.00     0.039 C 
ATOM     17  C   UNL     1      81.990  46.687  43.638  1.00  0.00     0.039 C 
ENDBRANCH  13  14
ENDBRANCH   1  13
BRANCH   3  18
ATOM     18  C   UNL     1      86.064  52.716  45.279  1.00  0.00     0.211 C 
ATOM     19  C   UNL     1      84.720  52.585  45.983  1.00  0.00     0.131 C 
ATOM     20  O   UNL     1      86.000  53.699  44.231  1.00  0.00    -0.484 OA
ATOM     21  C   UNL     1      84.365  53.923  46.563  1.00  0.00     0.174 C 
ATOM     22  C   UNL     1      85.590  54.928  44.674  1.00  0.00     0.138 A 
ATOM     23  O   UNL     1      83.689  54.055  47.582  1.00  0.00    -0.294 OA
ATOM     24  C   UNL     1      84.808  55.114  45.816  1.00  0.00     0.102 A 
ATOM     25  C   UNL     1      85.966  56.028  43.904  1.00  0.00     0.093 A 
ATOM     26  C   UNL     1      84.435  56.405  46.206  1.00  0.00     0.133 A 
ATOM     27  C   UNL     1      85.586  57.308  44.302  1.00  0.00     0.123 A 
ATOM     28  C   UNL     1      84.827  57.508  45.451  1.00  0.00     0.093 A 
BRANCH  26  29
ATOM     29  O   UNL     1      83.674  56.658  47.315  1.00  0.00    -0.507 OA
ATOM     30  H   UNL     1      83.544  57.632  47.384  1.00  0.00     0.293 HD
ENDBRANCH  26  29
BRANCH  27  31
ATOM     31  O   UNL     1      85.986  58.355  43.526  1.00  0.00    -0.508 OA
ATOM     32  H   UNL     1      86.909  58.573  43.743  1.00  0.00     0.293 HD
ENDBRANCH  27  31
ENDBRANCH   3  18
TORSDOF 5
ENDMDL
MODEL 9
REMARK VINA RESULT:    -9.151      3.748      7.094
REMARK INTER + INTRA:         -12.308
REMARK INTER:                 -11.291
REMARK INTRA:                  -1.017
REMARK UNBOUND:                -1.017
REMARK SMILES CC(C)=CCc1cc([C@@H]2CC(=O)c3c(O)cc(O)cc3O2)cc2c1OC(C)(C)C=C2
REMARK SMILES IDX 6 1 7 2 8 3 22 4 23 5 24 6 25 7 26 8 27 9 28 10 29 11 30 12
REMARK SMILES IDX 5 13 4 14 2 15 1 16 3 17 9 18 10 19 21 20 11 21 20 22 12 23
REMARK SMILES IDX 13 24 19 25 14 26 17 27 16 28 15 29 18 31
REMARK H PARENT 15 30 18 32
ROOT
ATOM      1  C   UNL     1      85.891  53.790  45.622  1.00  0.00    -0.001 A 
ATOM      2  C   UNL     1      85.964  52.469  45.144  1.00  0.00     0.015 A 
ATOM      3  C   UNL     1      85.551  52.143  43.844  1.00  0.00    -0.006 A 
ATOM      4  C   UNL     1      85.072  53.168  43.014  1.00  0.00     0.019 A 
ATOM      5  C   UNL     1      85.006  54.490  43.469  1.00  0.00     0.017 A 
ATOM      6  C   UNL     1      85.421  54.801  44.768  1.00  0.00     0.131 A 
ATOM      7  O   UNL     1      85.378  56.071  45.277  1.00  0.00    -0.483 OA
ATOM      8  C   UNL     1      85.078  57.174  44.399  1.00  0.00     0.122 C 
ATOM      9  C   UNL     1      86.374  57.978  44.235  1.00  0.00     0.061 C 
ATOM     10  C   UNL     1      84.034  58.023  45.134  1.00  0.00     0.061 C 
ATOM     11  C   UNL     1      84.542  56.796  43.038  1.00  0.00     0.021 C 
ATOM     12  C   UNL     1      84.500  55.537  42.595  1.00  0.00     0.012 C 
ENDROOT
BRANCH   1  13
ATOM     13  C   UNL     1      86.366  54.091  47.027  1.00  0.00     0.066 C 
BRANCH  13  14
ATOM     14  C   UNL     1      85.601  53.308  48.061  1.00  0.00    -0.023 C 
ATOM     15  C   UNL     1      84.337  53.495  48.490  1.00  0.00    -0.080 C 
ATOM     16  C   UNL     1      83.754  52.607  49.560  1.00  0.00     0.039 C 
ATOM     17  C   UNL     1      83.391  54.548  47.981  1.00  0.00     0.039 C 
ENDBRANCH  13  14
ENDBRANCH   1  13
BRANCH   3  18
ATOM     18  C   UNL     1      85.672  50.714  43.349  1.00  0.00     0.211 C 
ATOM     19  C   UNL     1      84.903  49.768  44.262  1.00  0.00     0.131 C 
ATOM     20  O   UNL     1      87.063  50.353  43.292  1.00  0.00    -0.484 OA
ATOM     21  C   UNL     1      85.045  48.376  43.719  1.00  0.00     0.174 C 
ATOM     22  C   UNL     1      87.265  49.059  42.892  1.00  0.00     0.138 A 
ATOM     23  O   UNL     1      84.183  47.510  43.859  1.00  0.00    -0.294 OA
ATOM     24  C   UNL     1      86.315  48.047  43.050  1.00  0.00     0.102 A 
ATOM     25  C   UNL     1      88.505  48.765  42.327  1.00  0.00     0.093 A 
ATOM     26  C   UNL     1      86.597  46.749  42.608  1.00  0.00     0.133 A 
ATOM     27  C   UNL     1      88.774  47.469  41.895  1.00  0.00     0.123 A 
ATOM     28  C   UNL     1      87.827  46.456  42.024  1.00  0.00     0.093 A 
BRANCH  26  29
ATOM     29  O   UNL     1      85.711  45.712  42.729  1.00  0.00    -0.507 OA
ATOM     30  H   UNL     1      85.046  45.954  43.413  1.00  0.00     0.293 HD
ENDBRANCH  26  29
BRANCH  27  31
ATOM     31  O   UNL     1      89.995  47.229  41.337  1.00  0.00    -0.508 OA
ATOM     32  H   UNL     1      90.686  47.451  41.986  1.00  0.00     0.293 HD
ENDBRANCH  27  31
ENDBRANCH   3  18
TORSDOF 5
ENDMDL
