MODEL 1
REMARK VINA RESULT:    -9.094      0.000      0.000
REMARK INTER + INTRA:         -14.406
REMARK INTER:                 -13.758
REMARK INTRA:                  -0.648
REMARK UNBOUND:                -0.793
REMARK SMILES COc1ccc(C2CC(=O)c3c(O)cc(OCCC(C)CO)cc3O2)cc1O
REMARK SMILES IDX 17 1 18 2 19 3 20 4 21 5 22 6 16 8 15 9 23 10 14 11 24 12
REMARK SMILES IDX 12 13 25 14 11 15 7 16 9 17 8 18 10 19 13 20 6 22 5 23 26 24
REMARK SMILES IDX 4 25 27 26 3 27 28 28 2 30 1 31
REMARK H PARENT 22 7 13 21 28 29
ROOT
ATOM      1  C   UNL     1      89.384  50.478  41.197  1.00  0.00     0.230 C 
ENDROOT
BRANCH   1   2
ATOM      2  C   UNL     1      90.057  51.837  41.404  1.00  0.00     0.047 C 
BRANCH   2   3
ATOM      3  C   UNL     1      89.537  52.936  40.459  1.00  0.00     0.015 C 
ATOM      4  C   UNL     1      88.597  52.306  39.425  1.00  0.00     0.010 C 
BRANCH   3   5
ATOM      5  C   UNL     1      90.662  53.712  39.758  1.00  0.00     0.159 C 
BRANCH   5   6
ATOM      6  O   UNL     1      90.708  55.067  40.186  1.00  0.00    -0.396 OA
ATOM      7  H   UNL     1      91.013  55.599  39.428  1.00  0.00     0.210 HD
ENDBRANCH   5   6
ENDBRANCH   3   5
ENDBRANCH   2   3
ENDBRANCH   1   2
BRANCH   1   8
ATOM      8  O   UNL     1      89.156  49.838  42.455  1.00  0.00    -0.493 OA
BRANCH   8   9
ATOM      9  C   UNL     1      88.440  48.672  42.472  1.00  0.00     0.126 A 
ATOM     10  C   UNL     1      87.081  48.827  42.745  1.00  0.00     0.094 A 
ATOM     11  C   UNL     1      88.942  47.391  42.233  1.00  0.00     0.093 A 
ATOM     12  C   UNL     1      86.233  47.719  42.795  1.00  0.00     0.138 A 
ATOM     13  C   UNL     1      88.089  46.281  42.261  1.00  0.00     0.133 A 
ATOM     14  O   UNL     1      84.920  47.994  43.084  1.00  0.00    -0.484 OA
ATOM     15  C   UNL     1      86.727  46.437  42.538  1.00  0.00     0.102 A 
ATOM     16  C   UNL     1      84.209  46.863  43.609  1.00  0.00     0.211 C 
ATOM     17  C   UNL     1      85.756  45.309  42.535  1.00  0.00     0.174 C 
ATOM     18  C   UNL     1      84.305  45.688  42.653  1.00  0.00     0.131 C 
ATOM     19  O   UNL     1      86.084  44.135  42.406  1.00  0.00    -0.294 OA
BRANCH  13  20
ATOM     20  O   UNL     1      88.618  45.048  41.998  1.00  0.00    -0.507 OA
ATOM     21  H   UNL     1      88.673  44.902  41.038  1.00  0.00     0.293 HD
ENDBRANCH  13  20
BRANCH  16  22
ATOM     22  C   UNL     1      82.760  47.254  43.832  1.00  0.00    -0.003 A 
ATOM     23  C   UNL     1      82.321  48.540  43.482  1.00  0.00     0.011 A 
ATOM     24  C   UNL     1      81.843  46.370  44.419  1.00  0.00     0.057 A 
ATOM     25  C   UNL     1      80.994  48.933  43.703  1.00  0.00     0.051 A 
ATOM     26  C   UNL     1      80.521  46.766  44.634  1.00  0.00     0.158 A 
ATOM     27  C   UNL     1      80.081  48.048  44.280  1.00  0.00     0.160 A 
BRANCH  26  28
ATOM     28  O   UNL     1      79.635  45.889  45.203  1.00  0.00    -0.504 OA
ATOM     29  H   UNL     1      79.684  45.971  46.168  1.00  0.00     0.293 HD
ENDBRANCH  26  28
BRANCH  27  30
ATOM     30  O   UNL     1      78.766  48.332  44.538  1.00  0.00    -0.493 OA
ATOM     31  C   UNL     1      78.466  49.601  45.100  1.00  0.00     0.278 C 
ENDBRANCH  27  30
ENDBRANCH  16  22
ENDBRANCH   8   9
ENDBRANCH   1   8
TORSDOF 10
ENDMDL
MODEL 2
REMARK VINA RESULT:    -8.580      1.624      7.853
REMARK INTER + INTRA:         -13.636
REMARK INTER:                 -12.689
REMARK INTRA:                  -0.948
REMARK UNBOUND:                -0.793
REMARK SMILES COc1ccc(C2CC(=O)c3c(O)cc(OCCC(C)CO)cc3O2)cc1O
REMARK SMILES IDX 17 1 18 2 19 3 20 4 21 5 22 6 16 8 15 9 23 10 14 11 24 12
REMARK SMILES IDX 12 13 25 14 11 15 7 16 9 17 8 18 10 19 13 20 6 22 5 23 26 24
REMARK SMILES IDX 4 25 27 26 3 27 28 28 2 30 1 31
REMARK H PARENT 22 7 13 21 28 29
ROOT
ATOM      1  C   UNL     1      82.021  46.592  43.391  1.00  0.00     0.230 C 
ENDROOT
BRANCH   1   2
ATOM      2  C   UNL     1      81.288  47.830  43.911  1.00  0.00     0.047 C 
BRANCH   2   3
ATOM      3  C   UNL     1      81.615  49.117  43.130  1.00  0.00     0.015 C 
ATOM      4  C   UNL     1      82.651  49.931  43.913  1.00  0.00     0.010 C 
BRANCH   3   5
ATOM      5  C   UNL     1      80.375  49.973  42.831  1.00  0.00     0.159 C 
BRANCH   5   6
ATOM      6  O   UNL     1      80.710  51.139  42.088  1.00  0.00    -0.396 OA
ATOM      7  H   UNL     1      80.697  50.894  41.146  1.00  0.00     0.210 HD
ENDBRANCH   5   6
ENDBRANCH   3   5
ENDBRANCH   2   3
ENDBRANCH   1   2
BRANCH   1   8
ATOM      8  O   UNL     1      83.055  46.205  44.299  1.00  0.00    -0.493 OA
BRANCH   8   9
ATOM      9  C   UNL     1      84.329  46.071  43.818  1.00  0.00     0.126 A 
ATOM     10  C   UNL     1      84.938  47.268  43.441  1.00  0.00     0.094 A 
ATOM     11  C   UNL     1      85.042  44.877  43.693  1.00  0.00     0.093 A 
ATOM     12  C   UNL     1      86.237  47.277  42.930  1.00  0.00     0.138 A 
ATOM     13  C   UNL     1      86.354  44.886  43.202  1.00  0.00     0.133 A 
ATOM     14  O   UNL     1      86.725  48.511  42.583  1.00  0.00    -0.484 OA
ATOM     15  C   UNL     1      86.963  46.087  42.820  1.00  0.00     0.102 A 
ATOM     16  C   UNL     1      87.803  48.445  41.636  1.00  0.00     0.211 C 
ATOM     17  C   UNL     1      88.368  46.176  42.338  1.00  0.00     0.174 C 
ATOM     18  C   UNL     1      88.919  47.565  42.167  1.00  0.00     0.131 C 
ATOM     19  O   UNL     1      89.072  45.196  42.123  1.00  0.00    -0.294 OA
BRANCH  13  20
ATOM     20  O   UNL     1      87.025  43.699  43.118  1.00  0.00    -0.507 OA
ATOM     21  H   UNL     1      87.031  43.252  43.981  1.00  0.00     0.293 HD
ENDBRANCH  13  20
BRANCH  16  22
ATOM     22  C   UNL     1      88.310  49.851  41.371  1.00  0.00    -0.003 A 
ATOM     23  C   UNL     1      89.661  50.160  41.593  1.00  0.00     0.011 A 
ATOM     24  C   UNL     1      87.451  50.872  40.941  1.00  0.00     0.057 A 
ATOM     25  C   UNL     1      90.147  51.457  41.381  1.00  0.00     0.051 A 
ATOM     26  C   UNL     1      87.942  52.162  40.728  1.00  0.00     0.158 A 
ATOM     27  C   UNL     1      89.292  52.471  40.945  1.00  0.00     0.160 A 
BRANCH  26  28
ATOM     28  O   UNL     1      87.092  53.148  40.301  1.00  0.00    -0.504 OA
ATOM     29  H   UNL     1      87.566  53.994  40.296  1.00  0.00     0.293 HD
ENDBRANCH  26  28
BRANCH  27  30
ATOM     30  O   UNL     1      89.665  53.767  40.708  1.00  0.00    -0.493 OA
ATOM     31  C   UNL     1      90.726  53.987  39.791  1.00  0.00     0.278 C 
ENDBRANCH  27  30
ENDBRANCH  16  22
ENDBRANCH   8   9
ENDBRANCH   1   8
TORSDOF 10
ENDMDL
MODEL 3
REMARK VINA RESULT:    -8.479      3.246      7.927
REMARK INTER + INTRA:         -13.485
REMARK INTER:                 -12.763
REMARK INTRA:                  -0.722
REMARK UNBOUND:                -0.793
REMARK SMILES COc1ccc(C2CC(=O)c3c(O)cc(OCCC(C)CO)cc3O2)cc1O
REMARK SMILES IDX 17 1 18 2 19 3 20 4 21 5 22 6 16 8 15 9 23 10 14 11 24 12
REMARK SMILES IDX 12 13 25 14 11 15 7 16 9 17 8 18 10 19 13 20 6 22 5 23 26 24
REMARK SMILES IDX 4 25 27 26 3 27 28 28 2 30 1 31
REMARK H PARENT 22 7 13 21 28 29
ROOT
ATOM      1  C   UNL     1      85.210  45.581  44.103  1.00  0.00     0.230 C 
ENDROOT
BRANCH   1   2
ATOM      2  C   UNL     1      86.042  44.303  44.225  1.00  0.00     0.047 C 
BRANCH   2   3
ATOM      3  C   UNL     1      87.300  44.296  43.337  1.00  0.00     0.015 C 
ATOM      4  C   UNL     1      86.880  44.125  41.872  1.00  0.00     0.010 C 
BRANCH   3   5
ATOM      5  C   UNL     1      88.313  43.212  43.734  1.00  0.00     0.159 C 
BRANCH   5   6
ATOM      6  O   UNL     1      88.681  43.316  45.104  1.00  0.00    -0.396 OA
ATOM      7  H   UNL     1      89.491  42.789  45.226  1.00  0.00     0.210 HD
ENDBRANCH   5   6
ENDBRANCH   3   5
ENDBRANCH   2   3
ENDBRANCH   1   2
BRANCH   1   8
ATOM      8  O   UNL     1      83.870  45.270  43.711  1.00  0.00    -0.493 OA
BRANCH   8   9
ATOM      9  C   UNL     1      82.940  46.273  43.715  1.00  0.00     0.126 A 
ATOM     10  C   UNL     1      83.374  47.470  43.145  1.00  0.00     0.094 A 
ATOM     11  C   UNL     1      81.639  46.191  44.212  1.00  0.00     0.093 A 
ATOM     12  C   UNL     1      82.528  48.579  43.085  1.00  0.00     0.138 A 
ATOM     13  C   UNL     1      80.780  47.295  44.132  1.00  0.00     0.133 A 
ATOM     14  O   UNL     1      83.069  49.703  42.514  1.00  0.00    -0.484 OA
ATOM     15  C   UNL     1      81.217  48.496  43.565  1.00  0.00     0.102 A 
ATOM     16  C   UNL     1      82.399  50.912  42.905  1.00  0.00     0.211 C 
ATOM     17  C   UNL     1      80.345  49.691  43.402  1.00  0.00     0.174 C 
ATOM     18  C   UNL     1      80.917  50.820  42.591  1.00  0.00     0.131 C 
ATOM     19  O   UNL     1      79.209  49.764  43.857  1.00  0.00    -0.294 OA
BRANCH  13  20
ATOM     20  O   UNL     1      79.507  47.163  44.610  1.00  0.00    -0.507 OA
ATOM     21  H   UNL     1      79.501  47.223  45.580  1.00  0.00     0.293 HD
ENDBRANCH  13  20
BRANCH  16  22
ATOM     22  C   UNL     1      83.029  52.082  42.171  1.00  0.00    -0.003 A 
ATOM     23  C   UNL     1      82.214  53.078  41.614  1.00  0.00     0.011 A 
ATOM     24  C   UNL     1      84.418  52.178  42.000  1.00  0.00     0.057 A 
ATOM     25  C   UNL     1      82.772  54.153  40.909  1.00  0.00     0.051 A 
ATOM     26  C   UNL     1      84.968  53.254  41.299  1.00  0.00     0.158 A 
ATOM     27  C   UNL     1      84.155  54.252  40.746  1.00  0.00     0.160 A 
BRANCH  26  28
ATOM     28  O   UNL     1      86.327  53.338  41.145  1.00  0.00    -0.504 OA
ATOM     29  H   UNL     1      86.567  53.009  40.265  1.00  0.00     0.293 HD
ENDBRANCH  26  28
BRANCH  27  30
ATOM     30  O   UNL     1      84.799  55.259  40.078  1.00  0.00    -0.493 OA
ATOM     31  C   UNL     1      84.430  55.490  38.726  1.00  0.00     0.278 C 
ENDBRANCH  27  30
ENDBRANCH  16  22
ENDBRANCH   8   9
ENDBRANCH   1   8
TORSDOF 10
ENDMDL
MODEL 4
REMARK VINA RESULT:    -8.342      5.398      6.954
REMARK INTER + INTRA:         -13.280
REMARK INTER:                 -12.144
REMARK INTRA:                  -1.135
REMARK UNBOUND:                -0.793
REMARK SMILES COc1ccc(C2CC(=O)c3c(O)cc(OCCC(C)CO)cc3O2)cc1O
REMARK SMILES IDX 17 1 18 2 19 3 20 4 21 5 22 6 16 8 15 9 23 10 14 11 24 12
REMARK SMILES IDX 12 13 25 14 11 15 7 16 9 17 8 18 10 19 13 20 6 22 5 23 26 24
REMARK SMILES IDX 4 25 27 26 3 27 28 28 2 30 1 31
REMARK H PARENT 22 7 13 21 28 29
ROOT
ATOM      1  C   UNL     1      86.431  54.529  46.736  1.00  0.00     0.230 C 
ENDROOT
BRANCH   1   2
ATOM      2  C   UNL     1      85.915  55.736  47.522  1.00  0.00     0.047 C 
BRANCH   2   3
ATOM      3  C   UNL     1      84.382  55.773  47.665  1.00  0.00     0.015 C 
ATOM      4  C   UNL     1      83.859  54.342  47.841  1.00  0.00     0.010 C 
BRANCH   3   5
ATOM      5  C   UNL     1      83.681  56.459  46.483  1.00  0.00     0.159 C 
BRANCH   5   6
ATOM      6  O   UNL     1      83.441  57.836  46.744  1.00  0.00    -0.396 OA
ATOM      7  H   UNL     1      83.527  57.967  47.706  1.00  0.00     0.210 HD
ENDBRANCH   5   6
ENDBRANCH   3   5
ENDBRANCH   2   3
ENDBRANCH   1   2
BRANCH   1   8
ATOM      8  O   UNL     1      86.809  54.918  45.413  1.00  0.00    -0.493 OA
BRANCH   8   9
ATOM      9  C   UNL     1      85.945  54.657  44.385  1.00  0.00     0.126 A 
ATOM     10  C   UNL     1      85.177  53.503  44.549  1.00  0.00     0.094 A 
ATOM     11  C   UNL     1      85.769  55.432  43.237  1.00  0.00     0.093 A 
ATOM     12  C   UNL     1      84.256  53.116  43.573  1.00  0.00     0.138 A 
ATOM     13  C   UNL     1      84.830  55.058  42.269  1.00  0.00     0.133 A 
ATOM     14  O   UNL     1      83.569  51.959  43.839  1.00  0.00    -0.484 OA
ATOM     15  C   UNL     1      84.063  53.899  42.431  1.00  0.00     0.102 A 
ATOM     16  C   UNL     1      83.033  51.339  42.660  1.00  0.00     0.211 C 
ATOM     17  C   UNL     1      83.013  53.469  41.468  1.00  0.00     0.174 C 
ATOM     18  C   UNL     1      82.152  52.315  41.903  1.00  0.00     0.131 C 
ATOM     19  O   UNL     1      82.812  54.027  40.395  1.00  0.00    -0.294 OA
BRANCH  13  20
ATOM     20  O   UNL     1      84.673  55.858  41.172  1.00  0.00    -0.507 OA
ATOM     21  H   UNL     1      83.734  55.916  40.927  1.00  0.00     0.293 HD
ENDBRANCH  13  20
BRANCH  16  22
ATOM     22  C   UNL     1      82.241  50.110  43.068  1.00  0.00    -0.003 A 
ATOM     23  C   UNL     1      80.839  50.160  43.096  1.00  0.00     0.011 A 
ATOM     24  C   UNL     1      82.877  48.923  43.459  1.00  0.00     0.057 A 
ATOM     25  C   UNL     1      80.087  49.046  43.496  1.00  0.00     0.051 A 
ATOM     26  C   UNL     1      82.122  47.816  43.853  1.00  0.00     0.158 A 
ATOM     27  C   UNL     1      80.722  47.863  43.877  1.00  0.00     0.160 A 
BRANCH  26  28
ATOM     28  O   UNL     1      82.758  46.661  44.226  1.00  0.00    -0.504 OA
ATOM     29  H   UNL     1      82.532  46.458  45.147  1.00  0.00     0.293 HD
ENDBRANCH  26  28
BRANCH  27  30
ATOM     30  O   UNL     1      80.083  46.722  44.281  1.00  0.00    -0.493 OA
ATOM     31  C   UNL     1      78.710  46.584  43.944  1.00  0.00     0.278 C 
ENDBRANCH  27  30
ENDBRANCH  16  22
ENDBRANCH   8   9
ENDBRANCH   1   8
TORSDOF 10
ENDMDL
MODEL 5
REMARK VINA RESULT:    -8.054      3.946      7.889
REMARK INTER + INTRA:         -12.850
REMARK INTER:                 -12.180
REMARK INTRA:                  -0.670
REMARK UNBOUND:                -0.793
REMARK SMILES COc1ccc(C2CC(=O)c3c(O)cc(OCCC(C)CO)cc3O2)cc1O
REMARK SMILES IDX 17 1 18 2 19 3 20 4 21 5 22 6 16 8 15 9 23 10 14 11 24 12
REMARK SMILES IDX 12 13 25 14 11 15 7 16 9 17 8 18 10 19 13 20 6 22 5 23 26 24
REMARK SMILES IDX 4 25 27 26 3 27 28 28 2 30 1 31
REMARK H PARENT 22 7 13 21 28 29
ROOT
ATOM      1  C   UNL     1      86.587  45.080  42.923  1.00  0.00     0.230 C 
ENDROOT
BRANCH   1   2
ATOM      2  C   UNL     1      86.469  43.651  43.458  1.00  0.00     0.047 C 
BRANCH   2   3
ATOM      3  C   UNL     1      87.775  42.841  43.354  1.00  0.00     0.015 C 
ATOM      4  C   UNL     1      87.524  41.416  43.859  1.00  0.00     0.010 C 
BRANCH   3   5
ATOM      5  C   UNL     1      88.945  43.481  44.116  1.00  0.00     0.159 C 
BRANCH   5   6
ATOM      6  O   UNL     1      88.932  43.122  45.492  1.00  0.00    -0.396 OA
ATOM      7  H   UNL     1      88.226  42.463  45.612  1.00  0.00     0.210 HD
ENDBRANCH   5   6
ENDBRANCH   3   5
ENDBRANCH   2   3
ENDBRANCH   1   2
BRANCH   1   8
ATOM      8  O   UNL     1      86.260  46.025  43.945  1.00  0.00    -0.493 OA
BRANCH   8   9
ATOM      9  C   UNL     1      85.194  46.860  43.743  1.00  0.00     0.126 A 
ATOM     10  C   UNL     1      85.515  48.217  43.723  1.00  0.00     0.094 A 
ATOM     11  C   UNL     1      83.867  46.472  43.551  1.00  0.00     0.093 A 
ATOM     12  C   UNL     1      84.523  49.180  43.529  1.00  0.00     0.138 A 
ATOM     13  C   UNL     1      82.874  47.436  43.333  1.00  0.00     0.133 A 
ATOM     14  O   UNL     1      84.956  50.482  43.540  1.00  0.00    -0.484 OA
ATOM     15  C   UNL     1      83.195  48.797  43.316  1.00  0.00     0.102 A 
ATOM     16  C   UNL     1      83.910  51.421  43.836  1.00  0.00     0.211 C 
ATOM     17  C   UNL     1      82.201  49.870  43.042  1.00  0.00     0.174 C 
ATOM     18  C   UNL     1      82.759  51.255  42.862  1.00  0.00     0.131 C 
ATOM     19  O   UNL     1      80.999  49.663  42.924  1.00  0.00    -0.294 OA
BRANCH  13  20
ATOM     20  O   UNL     1      81.592  47.012  43.125  1.00  0.00    -0.507 OA
ATOM     21  H   UNL     1      81.429  46.880  42.176  1.00  0.00     0.293 HD
ENDBRANCH  13  20
BRANCH  16  22
ATOM     22  C   UNL     1      84.477  52.827  43.760  1.00  0.00    -0.003 A 
ATOM     23  C   UNL     1      85.024  53.424  44.906  1.00  0.00     0.011 A 
ATOM     24  C   UNL     1      84.436  53.571  42.572  1.00  0.00     0.057 A 
ATOM     25  C   UNL     1      85.528  54.730  44.867  1.00  0.00     0.051 A 
ATOM     26  C   UNL     1      84.943  54.872  42.538  1.00  0.00     0.158 A 
ATOM     27  C   UNL     1      85.494  55.467  43.681  1.00  0.00     0.160 A 
BRANCH  26  28
ATOM     28  O   UNL     1      84.902  55.585  41.369  1.00  0.00    -0.504 OA
ATOM     29  H   UNL     1      85.804  55.843  41.124  1.00  0.00     0.293 HD
ENDBRANCH  26  28
BRANCH  27  30
ATOM     30  O   UNL     1      85.960  56.747  43.536  1.00  0.00    -0.493 OA
ATOM     31  C   UNL     1      85.261  57.780  44.215  1.00  0.00     0.278 C 
ENDBRANCH  27  30
ENDBRANCH  16  22
ENDBRANCH   8   9
ENDBRANCH   1   8
TORSDOF 10
ENDMDL
MODEL 6
REMARK VINA RESULT:    -7.836      3.828      8.039
REMARK INTER + INTRA:         -12.523
REMARK INTER:                 -11.625
REMARK INTRA:                  -0.899
REMARK UNBOUND:                -0.793
REMARK SMILES COc1ccc(C2CC(=O)c3c(O)cc(OCCC(C)CO)cc3O2)cc1O
REMARK SMILES IDX 17 1 18 2 19 3 20 4 21 5 22 6 16 8 15 9 23 10 14 11 24 12
REMARK SMILES IDX 12 13 25 14 11 15 7 16 9 17 8 18 10 19 13 20 6 22 5 23 26 24
REMARK SMILES IDX 4 25 27 26 3 27 28 28 2 30 1 31
REMARK H PARENT 22 7 13 21 28 29
ROOT
ATOM      1  C   UNL     1      83.423  45.929  43.455  1.00  0.00     0.230 C 
ENDROOT
BRANCH   1   2
ATOM      2  C   UNL     1      82.537  46.961  42.755  1.00  0.00     0.047 C 
BRANCH   2   3
ATOM      3  C   UNL     1      81.216  47.245  43.492  1.00  0.00     0.015 C 
ATOM      4  C   UNL     1      81.302  48.621  44.165  1.00  0.00     0.010 C 
BRANCH   3   5
ATOM      5  C   UNL     1      80.855  46.166  44.524  1.00  0.00     0.159 C 
BRANCH   5   6
ATOM      6  O   UNL     1      80.212  46.725  45.663  1.00  0.00    -0.396 OA
ATOM      7  H   UNL     1      79.651  47.456  45.349  1.00  0.00     0.210 HD
ENDBRANCH   5   6
ENDBRANCH   3   5
ENDBRANCH   2   3
ENDBRANCH   1   2
BRANCH   1   8
ATOM      8  O   UNL     1      84.409  46.581  44.260  1.00  0.00    -0.493 OA
BRANCH   8   9
ATOM      9  C   UNL     1      85.318  47.397  43.643  1.00  0.00     0.126 A 
ATOM     10  C   UNL     1      85.261  48.734  44.036  1.00  0.00     0.094 A 
ATOM     11  C   UNL     1      86.268  47.007  42.697  1.00  0.00     0.093 A 
ATOM     12  C   UNL     1      86.130  49.677  43.483  1.00  0.00     0.138 A 
ATOM     13  C   UNL     1      87.156  47.947  42.158  1.00  0.00     0.133 A 
ATOM     14  O   UNL     1      85.972  50.961  43.939  1.00  0.00    -0.484 OA
ATOM     15  C   UNL     1      87.096  49.288  42.550  1.00  0.00     0.102 A 
ATOM     16  C   UNL     1      86.495  51.947  43.036  1.00  0.00     0.211 C 
ATOM     17  C   UNL     1      88.039  50.329  42.058  1.00  0.00     0.174 C 
ATOM     18  C   UNL     1      87.957  51.668  42.737  1.00  0.00     0.131 C 
ATOM     19  O   UNL     1      88.870  50.126  41.180  1.00  0.00    -0.294 OA
BRANCH  13  20
ATOM     20  O   UNL     1      88.086  47.518  41.254  1.00  0.00    -0.507 OA
ATOM     21  H   UNL     1      88.603  46.782  41.623  1.00  0.00     0.293 HD
ENDBRANCH  13  20
BRANCH  16  22
ATOM     22  C   UNL     1      86.331  53.321  43.660  1.00  0.00    -0.003 A 
ATOM     23  C   UNL     1      86.637  53.514  45.016  1.00  0.00     0.011 A 
ATOM     24  C   UNL     1      85.839  54.408  42.923  1.00  0.00     0.057 A 
ATOM     25  C   UNL     1      86.467  54.767  45.620  1.00  0.00     0.051 A 
ATOM     26  C   UNL     1      85.675  55.655  43.530  1.00  0.00     0.158 A 
ATOM     27  C   UNL     1      85.985  55.850  44.882  1.00  0.00     0.160 A 
BRANCH  26  28
ATOM     28  O   UNL     1      85.200  56.709  42.795  1.00  0.00    -0.504 OA
ATOM     29  H   UNL     1      85.200  56.466  41.857  1.00  0.00     0.293 HD
ENDBRANCH  26  28
BRANCH  27  30
ATOM     30  O   UNL     1      85.784  57.112  45.376  1.00  0.00    -0.493 OA
ATOM     31  C   UNL     1      84.628  57.328  46.172  1.00  0.00     0.278 C 
ENDBRANCH  27  30
ENDBRANCH  16  22
ENDBRANCH   8   9
ENDBRANCH   1   8
TORSDOF 10
ENDMDL
MODEL 7
REMARK VINA RESULT:    -7.686      4.062      7.277
REMARK INTER + INTRA:         -12.298
REMARK INTER:                 -11.347
REMARK INTRA:                  -0.951
REMARK UNBOUND:                -0.793
REMARK SMILES COc1ccc(C2CC(=O)c3c(O)cc(OCCC(C)CO)cc3O2)cc1O
REMARK SMILES IDX 17 1 18 2 19 3 20 4 21 5 22 6 16 8 15 9 23 10 14 11 24 12
REMARK SMILES IDX 12 13 25 14 11 15 7 16 9 17 8 18 10 19 13 20 6 22 5 23 26 24
REMARK SMILES IDX 4 25 27 26 3 27 28 28 2 30 1 31
REMARK H PARENT 22 7 13 21 28 29
ROOT
ATOM      1  C   UNL     1      84.482  52.849  45.308  1.00  0.00     0.230 C 
ENDROOT
BRANCH   1   2
ATOM      2  C   UNL     1      84.724  53.697  46.559  1.00  0.00     0.047 C 
BRANCH   2   3
ATOM      3  C   UNL     1      84.940  55.192  46.260  1.00  0.00     0.015 C 
ATOM      4  C   UNL     1      86.343  55.600  46.726  1.00  0.00     0.010 C 
BRANCH   3   5
ATOM      5  C   UNL     1      83.878  56.096  46.904  1.00  0.00     0.159 C 
BRANCH   5   6
ATOM      6  O   UNL     1      83.158  55.414  47.923  1.00  0.00    -0.396 OA
ATOM      7  H   UNL     1      83.717  54.678  48.229  1.00  0.00     0.210 HD
ENDBRANCH   5   6
ENDBRANCH   3   5
ENDBRANCH   2   3
ENDBRANCH   1   2
BRANCH   1   8
ATOM      8  O   UNL     1      84.953  53.531  44.143  1.00  0.00    -0.493 OA
BRANCH   8   9
ATOM      9  C   UNL     1      86.003  52.992  43.452  1.00  0.00     0.126 A 
ATOM     10  C   UNL     1      86.012  51.598  43.401  1.00  0.00     0.094 A 
ATOM     11  C   UNL     1      87.020  53.702  42.810  1.00  0.00     0.093 A 
ATOM     12  C   UNL     1      87.029  50.916  42.730  1.00  0.00     0.138 A 
ATOM     13  C   UNL     1      88.028  53.020  42.117  1.00  0.00     0.133 A 
ATOM     14  O   UNL     1      86.937  49.548  42.757  1.00  0.00    -0.484 OA
ATOM     15  C   UNL     1      88.038  51.622  42.069  1.00  0.00     0.102 A 
ATOM     16  C   UNL     1      88.193  48.894  42.518  1.00  0.00     0.211 C 
ATOM     17  C   UNL     1      89.049  50.835  41.311  1.00  0.00     0.174 C 
ATOM     18  C   UNL     1      88.789  49.358  41.202  1.00  0.00     0.131 C 
ATOM     19  O   UNL     1      90.024  51.338  40.764  1.00  0.00    -0.294 OA
BRANCH  13  20
ATOM     20  O   UNL     1      88.990  53.754  41.482  1.00  0.00    -0.507 OA
ATOM     21  H   UNL     1      89.418  54.364  42.106  1.00  0.00     0.293 HD
ENDBRANCH  13  20
BRANCH  16  22
ATOM     22  C   UNL     1      87.971  47.393  42.505  1.00  0.00    -0.003 A 
ATOM     23  C   UNL     1      89.055  46.527  42.292  1.00  0.00     0.011 A 
ATOM     24  C   UNL     1      86.693  46.839  42.662  1.00  0.00     0.057 A 
ATOM     25  C   UNL     1      88.870  45.139  42.248  1.00  0.00     0.051 A 
ATOM     26  C   UNL     1      86.515  45.454  42.621  1.00  0.00     0.158 A 
ATOM     27  C   UNL     1      87.598  44.589  42.414  1.00  0.00     0.160 A 
BRANCH  26  28
ATOM     28  O   UNL     1      85.261  44.926  42.784  1.00  0.00    -0.504 OA
ATOM     29  H   UNL     1      85.206  44.087  42.302  1.00  0.00     0.293 HD
ENDBRANCH  26  28
BRANCH  27  30
ATOM     30  O   UNL     1      87.310  43.250  42.389  1.00  0.00    -0.493 OA
ATOM     31  C   UNL     1      87.649  42.485  43.536  1.00  0.00     0.278 C 
ENDBRANCH  27  30
ENDBRANCH  16  22
ENDBRANCH   8   9
ENDBRANCH   1   8
TORSDOF 10
ENDMDL
MODEL 8
REMARK VINA RESULT:    -7.522      4.823      8.661
REMARK INTER + INTRA:         -12.053
REMARK INTER:                 -11.073
REMARK INTRA:                  -0.980
REMARK UNBOUND:                -0.793
REMARK SMILES COc1ccc(C2CC(=O)c3c(O)cc(OCCC(C)CO)cc3O2)cc1O
REMARK SMILES IDX 17 1 18 2 19 3 20 4 21 5 22 6 16 8 15 9 23 10 14 11 24 12
REMARK SMILES IDX 12 13 25 14 11 15 7 16 9 17 8 18 10 19 13 20 6 22 5 23 26 24
REMARK SMILES IDX 4 25 27 26 3 27 28 28 2 30 1 31
REMARK H PARENT 22 7 13 21 28 29
ROOT
ATOM      1  C   UNL     1      85.935  54.802  47.097  1.00  0.00     0.230 C 
ENDROOT
BRANCH   1   2
ATOM      2  C   UNL     1      85.310  54.318  48.407  1.00  0.00     0.047 C 
BRANCH   2   3
ATOM      3  C   UNL     1      84.880  52.840  48.379  1.00  0.00     0.015 C 
ATOM      4  C   UNL     1      83.761  52.622  49.405  1.00  0.00     0.010 C 
BRANCH   3   5
ATOM      5  C   UNL     1      86.041  51.869  48.639  1.00  0.00     0.159 C 
BRANCH   5   6
ATOM      6  O   UNL     1      86.425  51.183  47.453  1.00  0.00    -0.396 OA
ATOM      7  H   UNL     1      86.957  50.414  47.724  1.00  0.00     0.210 HD
ENDBRANCH   5   6
ENDBRANCH   3   5
ENDBRANCH   2   3
ENDBRANCH   1   2
BRANCH   1   8
ATOM      8  O   UNL     1      84.926  54.988  46.100  1.00  0.00    -0.493 OA
BRANCH   8   9
ATOM      9  C   UNL     1      85.209  54.625  44.812  1.00  0.00     0.126 A 
ATOM     10  C   UNL     1      85.855  53.396  44.682  1.00  0.00     0.094 A 
ATOM     11  C   UNL     1      84.900  55.355  43.662  1.00  0.00     0.093 A 
ATOM     12  C   UNL     1      86.206  52.904  43.422  1.00  0.00     0.138 A 
ATOM     13  C   UNL     1      85.230  54.853  42.397  1.00  0.00     0.133 A 
ATOM     14  O   UNL     1      86.847  51.692  43.421  1.00  0.00    -0.484 OA
ATOM     15  C   UNL     1      85.882  53.622  42.267  1.00  0.00     0.102 A 
ATOM     16  C   UNL     1      87.613  51.461  42.228  1.00  0.00     0.211 C 
ATOM     17  C   UNL     1      86.218  53.006  40.954  1.00  0.00     0.174 C 
ATOM     18  C   UNL     1      86.731  51.594  41.000  1.00  0.00     0.131 C 
ATOM     19  O   UNL     1      86.059  53.576  39.881  1.00  0.00    -0.294 OA
BRANCH  13  20
ATOM     20  O   UNL     1      84.889  55.588  41.297  1.00  0.00    -0.507 OA
ATOM     21  H   UNL     1      84.038  56.036  41.440  1.00  0.00     0.293 HD
ENDBRANCH  13  20
BRANCH  16  22
ATOM     22  C   UNL     1      88.225  50.074  42.299  1.00  0.00    -0.003 A 
ATOM     23  C   UNL     1      87.469  48.955  41.917  1.00  0.00     0.011 A 
ATOM     24  C   UNL     1      89.528  49.870  42.775  1.00  0.00     0.057 A 
ATOM     25  C   UNL     1      88.004  47.663  42.000  1.00  0.00     0.051 A 
ATOM     26  C   UNL     1      90.057  48.580  42.851  1.00  0.00     0.158 A 
ATOM     27  C   UNL     1      89.304  47.463  42.466  1.00  0.00     0.160 A 
BRANCH  26  28
ATOM     28  O   UNL     1      91.334  48.397  43.313  1.00  0.00    -0.504 OA
ATOM     29  H   UNL     1      91.961  48.628  42.609  1.00  0.00     0.293 HD
ENDBRANCH  26  28
BRANCH  27  30
ATOM     30  O   UNL     1      89.919  46.245  42.584  1.00  0.00    -0.493 OA
ATOM     31  C   UNL     1      89.110  45.086  42.455  1.00  0.00     0.278 C 
ENDBRANCH  27  30
ENDBRANCH  16  22
ENDBRANCH   8   9
ENDBRANCH   1   8
TORSDOF 10
ENDMDL
MODEL 9
REMARK VINA RESULT:    -7.363      5.157      7.947
REMARK INTER + INTRA:         -11.814
REMARK INTER:                 -11.021
REMARK INTRA:                  -0.793
REMARK UNBOUND:                -0.793
REMARK SMILES COc1ccc(C2CC(=O)c3c(O)cc(OCCC(C)CO)cc3O2)cc1O
REMARK SMILES IDX 17 1 18 2 19 3 20 4 21 5 22 6 16 8 15 9 23 10 14 11 24 12
REMARK SMILES IDX 12 13 25 14 11 15 7 16 9 17 8 18 10 19 13 20 6 22 5 23 26 24
REMARK SMILES IDX 4 25 27 26 3 27 28 28 2 30 1 31
REMARK H PARENT 22 7 13 21 28 29
ROOT
ATOM      1  C   UNL     1      84.943  56.337  43.290  1.00  0.00     0.230 C 
ENDROOT
BRANCH   1   2
ATOM      2  C   UNL     1      83.837  55.922  42.318  1.00  0.00     0.047 C 
BRANCH   2   3
ATOM      3  C   UNL     1      84.239  54.771  41.377  1.00  0.00     0.015 C 
ATOM      4  C   UNL     1      84.104  55.240  39.923  1.00  0.00     0.010 C 
BRANCH   3   5
ATOM      5  C   UNL     1      83.421  53.491  41.606  1.00  0.00     0.159 C 
BRANCH   5   6
ATOM      6  O   UNL     1      82.183  53.529  40.907  1.00  0.00    -0.396 OA
ATOM      7  H   UNL     1      81.808  54.419  41.033  1.00  0.00     0.210 HD
ENDBRANCH   5   6
ENDBRANCH   3   5
ENDBRANCH   2   3
ENDBRANCH   1   2
BRANCH   1   8
ATOM      8  O   UNL     1      84.474  56.271  44.639  1.00  0.00    -0.493 OA
BRANCH   8   9
ATOM      9  C   UNL     1      84.861  55.211  45.412  1.00  0.00     0.126 A 
ATOM     10  C   UNL     1      85.474  54.172  44.712  1.00  0.00     0.094 A 
ATOM     11  C   UNL     1      84.708  55.099  46.796  1.00  0.00     0.093 A 
ATOM     12  C   UNL     1      85.916  53.027  45.377  1.00  0.00     0.138 A 
ATOM     13  C   UNL     1      85.171  53.961  47.468  1.00  0.00     0.133 A 
ATOM     14  O   UNL     1      86.492  52.069  44.582  1.00  0.00    -0.484 OA
ATOM     15  C   UNL     1      85.783  52.918  46.765  1.00  0.00     0.102 A 
ATOM     16  C   UNL     1      86.474  50.761  45.173  1.00  0.00     0.211 C 
ATOM     17  C   UNL     1      86.342  51.705  47.420  1.00  0.00     0.174 C 
ATOM     18  C   UNL     1      87.140  50.787  46.536  1.00  0.00     0.131 C 
ATOM     19  O   UNL     1      86.211  51.461  48.614  1.00  0.00    -0.294 OA
BRANCH  13  20
ATOM     20  O   UNL     1      85.023  53.904  48.825  1.00  0.00    -0.507 OA
ATOM     21  H   UNL     1      84.937  52.980  49.118  1.00  0.00     0.293 HD
ENDBRANCH  13  20
BRANCH  16  22
ATOM     22  C   UNL     1      87.189  49.793  44.247  1.00  0.00    -0.003 A 
ATOM     23  C   UNL     1      88.561  49.948  43.998  1.00  0.00     0.011 A 
ATOM     24  C   UNL     1      86.502  48.760  43.594  1.00  0.00     0.057 A 
ATOM     25  C   UNL     1      89.237  49.084  43.126  1.00  0.00     0.051 A 
ATOM     26  C   UNL     1      87.182  47.899  42.728  1.00  0.00     0.158 A 
ATOM     27  C   UNL     1      88.553  48.050  42.484  1.00  0.00     0.160 A 
BRANCH  26  28
ATOM     28  O   UNL     1      86.499  46.889  42.103  1.00  0.00    -0.504 OA
ATOM     29  H   UNL     1      85.549  47.011  42.252  1.00  0.00     0.293 HD
ENDBRANCH  26  28
BRANCH  27  30
ATOM     30  O   UNL     1      89.118  47.154  41.616  1.00  0.00    -0.493 OA
ATOM     31  C   UNL     1      90.017  46.196  42.156  1.00  0.00     0.278 C 
ENDBRANCH  27  30
ENDBRANCH  16  22
ENDBRANCH   8   9
ENDBRANCH   1   8
TORSDOF 10
ENDMDL
