MODEL 1
REMARK VINA RESULT:   -10.652      0.000      0.000
REMARK INTER + INTRA:         -10.652
REMARK INTER:                 -10.652
REMARK INTRA:                   0.000
REMARK UNBOUND:                 0.000
REMARK  Name = /content/outputs/docking/native_ligand.pdb
REMARK  2 active torsions:
REMARK  status: ('A' for Active; 'I' for Inactive)
REMARK    1  A    between atoms: C10_2  and  C19_11
REMARK    2  A    between atoms: C13_5  and  C18_10
REMARK                            x       y       z     vdW  Elec       q    Type
REMARK                         _______ _______ _______ _____ _____    ______ ____
ROOT
ATOM      1  C1  ASD A 601      87.300  51.693  45.449  0.00  0.00    +0.000 C 
ATOM      2  C10 ASD A 601      86.065  52.471  45.933  0.00  0.00    +0.000 C 
ATOM      3  C11 ASD A 601      86.540  54.268  44.177  0.00  0.00    +0.000 C 
ATOM      4  C12 ASD A 601      86.758  55.752  43.896  0.00  0.00    +0.000 C 
ATOM      5  C13 ASD A 601      85.557  56.518  44.427  0.00  0.00    +0.000 C 
ATOM      6  C14 ASD A 601      85.495  56.309  45.941  0.00  0.00    +0.000 C 
ATOM      7  C15 ASD A 601      84.578  57.420  46.461  0.00  0.00    +0.000 C 
ATOM      8  C16 ASD A 601      85.032  58.643  45.651  0.00  0.00    +0.000 C 
ATOM      9  C17 ASD A 601      85.622  58.020  44.396  0.00  0.00    +0.000 C 
ATOM     10  C18 ASD A 601      84.279  56.111  43.690  0.00  0.00    +0.000 C 
ATOM     11  C19 ASD A 601      84.820  51.981  45.187  0.00  0.00    +0.000 C 
ATOM     12  C2  ASD A 601      87.438  50.316  46.085  0.00  0.00    +0.000 C 
ATOM     13  C3  ASD A 601      87.421  50.510  47.585  0.00  0.00    +0.000 C 
ATOM     14  C4  ASD A 601      86.536  51.368  48.158  0.00  0.00    +0.000 C 
ATOM     15  C5  ASD A 601      85.859  52.297  47.442  0.00  0.00    +0.000 C 
ATOM     16  C6  ASD A 601      84.888  53.198  48.170  0.00  0.00    +0.000 C 
ATOM     17  C7  ASD A 601      85.212  54.655  47.838  0.00  0.00    +0.000 C 
ATOM     18  C8  ASD A 601      85.235  54.861  46.327  0.00  0.00    +0.000 C 
ATOM     19  C9  ASD A 601      86.308  53.969  45.670  0.00  0.00    +0.000 C 
ATOM     20  O1  ASD A 601      88.221  49.880  48.266  0.00  0.00    +0.000 OA
ATOM     21  O2  ASD A 601      86.080  58.668  43.468  0.00  0.00    +0.000 OA
ENDROOT
TORSDOF 0
ENDMDL
MODEL 2
REMARK VINA RESULT:    -9.010      2.811      3.983
REMARK INTER + INTRA:          -9.010
REMARK INTER:                  -9.010
REMARK INTRA:                   0.000
REMARK UNBOUND:                 0.000
REMARK  Name = /content/outputs/docking/native_ligand.pdb
REMARK  2 active torsions:
REMARK  status: ('A' for Active; 'I' for Inactive)
REMARK    1  A    between atoms: C10_2  and  C19_11
REMARK    2  A    between atoms: C13_5  and  C18_10
REMARK                            x       y       z     vdW  Elec       q    Type
REMARK                         _______ _______ _______ _____ _____    ______ ____
ROOT
ATOM      1  C1  ASD A 601      88.585  51.746  41.749  0.00  0.00    +0.000 C 
ATOM      2  C10 ASD A 601      87.642  51.440  42.925  0.00  0.00    +0.000 C 
ATOM      3  C11 ASD A 601      87.003  53.914  43.025  0.00  0.00    +0.000 C 
ATOM      4  C12 ASD A 601      86.877  55.165  43.888  0.00  0.00    +0.000 C 
ATOM      5  C13 ASD A 601      85.988  54.837  45.076  0.00  0.00    +0.000 C 
ATOM      6  C14 ASD A 601      86.679  53.744  45.894  0.00  0.00    +0.000 C 
ATOM      7  C15 ASD A 601      85.990  53.773  47.262  0.00  0.00    +0.000 C 
ATOM      8  C16 ASD A 601      85.851  55.276  47.541  0.00  0.00    +0.000 C 
ATOM      9  C17 ASD A 601      85.846  55.883  46.147  0.00  0.00    +0.000 C 
ATOM     10  C18 ASD A 601      84.574  54.472  44.618  0.00  0.00    +0.000 C 
ATOM     11  C19 ASD A 601      86.262  51.039  42.392  0.00  0.00    +0.000 C 
ATOM     12  C2  ASD A 601      89.175  50.499  41.104  0.00  0.00    +0.000 C 
ATOM     13  C3  ASD A 601      89.849  49.703  42.199  0.00  0.00    +0.000 C 
ATOM     14  C4  ASD A 601      89.244  49.545  43.406  0.00  0.00    +0.000 C 
ATOM     15  C5  ASD A 601      88.200  50.312  43.801  0.00  0.00    +0.000 C 
ATOM     16  C6  ASD A 601      87.589  50.050  45.158  0.00  0.00    +0.000 C 
ATOM     17  C7  ASD A 601      87.535  51.361  45.943  0.00  0.00    +0.000 C 
ATOM     18  C8  ASD A 601      86.813  52.433  45.134  0.00  0.00    +0.000 C 
ATOM     19  C9  ASD A 601      87.545  52.701  43.803  0.00  0.00    +0.000 C 
ATOM     20  O1  ASD A 601      90.946  49.208  41.973  0.00  0.00    +0.000 OA
ATOM     21  O2  ASD A 601      85.725  57.078  45.928  0.00  0.00    +0.000 OA
ENDROOT
TORSDOF 0
ENDMDL
MODEL 3
REMARK VINA RESULT:    -8.640      2.744      6.426
REMARK INTER + INTRA:          -8.640
REMARK INTER:                  -8.640
REMARK INTRA:                   0.000
REMARK UNBOUND:                 0.000
REMARK  Name = /content/outputs/docking/native_ligand.pdb
REMARK  2 active torsions:
REMARK  status: ('A' for Active; 'I' for Inactive)
REMARK    1  A    between atoms: C10_2  and  C19_11
REMARK    2  A    between atoms: C13_5  and  C18_10
REMARK                            x       y       z     vdW  Elec       q    Type
REMARK                         _______ _______ _______ _____ _____    ______ ____
ROOT
ATOM      1  C1  ASD A 601      86.151  53.284  46.768  0.00  0.00    +0.000 C 
ATOM      2  C10 ASD A 601      86.009  53.089  45.248  0.00  0.00    +0.000 C 
ATOM      3  C11 ASD A 601      87.277  50.877  45.438  0.00  0.00    +0.000 C 
ATOM      4  C12 ASD A 601      88.445  50.030  44.944  0.00  0.00    +0.000 C 
ATOM      5  C13 ASD A 601      88.326  49.889  43.434  0.00  0.00    +0.000 C 
ATOM      6  C14 ASD A 601      88.438  51.285  42.821  0.00  0.00    +0.000 C 
ATOM      7  C15 ASD A 601      88.754  51.047  41.340  0.00  0.00    +0.000 C 
ATOM      8  C16 ASD A 601      89.780  49.906  41.391  0.00  0.00    +0.000 C 
ATOM      9  C17 ASD A 601      89.458  49.217  42.708  0.00  0.00    +0.000 C 
ATOM     10  C18 ASD A 601      87.045  49.142  43.054  0.00  0.00    +0.000 C 
ATOM     11  C19 ASD A 601      84.687  52.378  44.939  0.00  0.00    +0.000 C 
ATOM     12  C2  ASD A 601      85.364  54.473  47.304  0.00  0.00    +0.000 C 
ATOM     13  C3  ASD A 601      85.797  55.690  46.517  0.00  0.00    +0.000 C 
ATOM     14  C4  ASD A 601      85.960  55.615  45.170  0.00  0.00    +0.000 C 
ATOM     15  C5  ASD A 601      86.052  54.434  44.514  0.00  0.00    +0.000 C 
ATOM     16  C6  ASD A 601      86.220  54.457  43.012  0.00  0.00    +0.000 C 
ATOM     17  C7  ASD A 601      87.428  53.600  42.632  0.00  0.00    +0.000 C 
ATOM     18  C8  ASD A 601      87.289  52.200  43.218  0.00  0.00    +0.000 C 
ATOM     19  C9  ASD A 601      87.207  52.257  44.757  0.00  0.00    +0.000 C 
ATOM     20  O1  ASD A 601      85.997  56.736  47.121  0.00  0.00    +0.000 OA
ATOM     21  O2  ASD A 601      90.043  48.227  43.116  0.00  0.00    +0.000 OA
ENDROOT
TORSDOF 0
ENDMDL
MODEL 4
REMARK VINA RESULT:    -8.318      2.249      3.635
REMARK INTER + INTRA:          -8.318
REMARK INTER:                  -8.318
REMARK INTRA:                   0.000
REMARK UNBOUND:                 0.000
REMARK  Name = /content/outputs/docking/native_ligand.pdb
REMARK  2 active torsions:
REMARK  status: ('A' for Active; 'I' for Inactive)
REMARK    1  A    between atoms: C10_2  and  C19_11
REMARK    2  A    between atoms: C13_5  and  C18_10
REMARK                            x       y       z     vdW  Elec       q    Type
REMARK                         _______ _______ _______ _____ _____    ______ ____
ROOT
ATOM      1  C1  ASD A 601      85.631  50.274  45.389  0.00  0.00    +0.000 C 
ATOM      2  C10 ASD A 601      86.567  51.438  45.018  0.00  0.00    +0.000 C 
ATOM      3  C11 ASD A 601      85.104  53.021  46.392  0.00  0.00    +0.000 C 
ATOM      4  C12 ASD A 601      84.303  54.319  46.418  0.00  0.00    +0.000 C 
ATOM      5  C13 ASD A 601      85.222  55.454  45.996  0.00  0.00    +0.000 C 
ATOM      6  C14 ASD A 601      85.676  55.186  44.561  0.00  0.00    +0.000 C 
ATOM      7  C15 ASD A 601      86.210  56.529  44.052  0.00  0.00    +0.000 C 
ATOM      8  C16 ASD A 601      85.178  57.530  44.591  0.00  0.00    +0.000 C 
ATOM      9  C17 ASD A 601      84.606  56.812  45.802  0.00  0.00    +0.000 C 
ATOM     10  C18 ASD A 601      86.373  55.625  46.992  0.00  0.00    +0.000 C 
ATOM     11  C19 ASD A 601      87.716  51.520  46.028  0.00  0.00    +0.000 C 
ATOM     12  C2  ASD A 601      86.146  48.913  44.941  0.00  0.00    +0.000 C 
ATOM     13  C3  ASD A 601      86.409  48.999  43.454  0.00  0.00    +0.000 C 
ATOM     14  C4  ASD A 601      87.017  50.094  42.924  0.00  0.00    +0.000 C 
ATOM     15  C5  ASD A 601      87.137  51.258  43.606  0.00  0.00    +0.000 C 
ATOM     16  C6  ASD A 601      87.841  52.414  42.934  0.00  0.00    +0.000 C 
ATOM     17  C7  ASD A 601      86.943  53.649  42.995  0.00  0.00    +0.000 C 
ATOM     18  C8  ASD A 601      86.525  53.930  44.435  0.00  0.00    +0.000 C 
ATOM     19  C9  ASD A 601      85.741  52.737  45.019  0.00  0.00    +0.000 C 
ATOM     20  O1  ASD A 601      86.060  48.064  42.743  0.00  0.00    +0.000 OA
ATOM     21  O2  ASD A 601      83.756  57.291  46.536  0.00  0.00    +0.000 OA
ENDROOT
TORSDOF 0
ENDMDL
MODEL 5
REMARK VINA RESULT:    -8.268      3.411      5.621
REMARK INTER + INTRA:          -8.268
REMARK INTER:                  -8.268
REMARK INTRA:                   0.000
REMARK UNBOUND:                 0.000
REMARK  Name = /content/outputs/docking/native_ligand.pdb
REMARK  2 active torsions:
REMARK  status: ('A' for Active; 'I' for Inactive)
REMARK    1  A    between atoms: C10_2  and  C19_11
REMARK    2  A    between atoms: C13_5  and  C18_10
REMARK                            x       y       z     vdW  Elec       q    Type
REMARK                         _______ _______ _______ _____ _____    ______ ____
ROOT
ATOM      1  C1  ASD A 601      84.294  53.126  46.699  0.00  0.00    +0.000 C 
ATOM      2  C10 ASD A 601      85.774  52.705  46.674  0.00  0.00    +0.000 C 
ATOM      3  C11 ASD A 601      85.619  52.400  44.140  0.00  0.00    +0.000 C 
ATOM      4  C12 ASD A 601      85.842  51.471  42.951  0.00  0.00    +0.000 C 
ATOM      5  C13 ASD A 601      87.293  51.017  42.967  0.00  0.00    +0.000 C 
ATOM      6  C14 ASD A 601      87.526  50.229  44.256  0.00  0.00    +0.000 C 
ATOM      7  C15 ASD A 601      88.820  49.444  44.016  0.00  0.00    +0.000 C 
ATOM      8  C16 ASD A 601      88.654  48.949  42.572  0.00  0.00    +0.000 C 
ATOM      9  C17 ASD A 601      87.704  49.971  41.968  0.00  0.00    +0.000 C 
ATOM     10  C18 ASD A 601      88.240  52.206  42.783  0.00  0.00    +0.000 C 
ATOM     11  C19 ASD A 601      86.662  53.945  46.534  0.00  0.00    +0.000 C 
ATOM     12  C2  ASD A 601      83.830  53.634  48.057  0.00  0.00    +0.000 C 
ATOM     13  C3  ASD A 601      84.148  52.558  49.072  0.00  0.00    +0.000 C 
ATOM     14  C4  ASD A 601      85.339  51.905  49.032  0.00  0.00    +0.000 C 
ATOM     15  C5  ASD A 601      86.152  51.944  47.950  0.00  0.00    +0.000 C 
ATOM     16  C6  ASD A 601      87.463  51.193  48.009  0.00  0.00    +0.000 C 
ATOM     17  C7  ASD A 601      87.569  50.279  46.788  0.00  0.00    +0.000 C 
ATOM     18  C8  ASD A 601      87.371  51.081  45.506  0.00  0.00    +0.000 C 
ATOM     19  C9  ASD A 601      85.980  51.746  45.487  0.00  0.00    +0.000 C 
ATOM     20  O1  ASD A 601      83.309  52.291  49.924  0.00  0.00    +0.000 OA
ATOM     21  O2  ASD A 601      87.333  49.948  40.805  0.00  0.00    +0.000 OA
ENDROOT
TORSDOF 0
ENDMDL
MODEL 6
REMARK VINA RESULT:    -8.220      3.209      4.738
REMARK INTER + INTRA:          -8.220
REMARK INTER:                  -8.220
REMARK INTRA:                   0.000
REMARK UNBOUND:                 0.000
REMARK  Name = /content/outputs/docking/native_ligand.pdb
REMARK  2 active torsions:
REMARK  status: ('A' for Active; 'I' for Inactive)
REMARK    1  A    between atoms: C10_2  and  C19_11
REMARK    2  A    between atoms: C13_5  and  C18_10
REMARK                            x       y       z     vdW  Elec       q    Type
REMARK                         _______ _______ _______ _____ _____    ______ ____
ROOT
ATOM      1  C1  ASD A 601      83.535  50.685  44.233  0.00  0.00    +0.000 C 
ATOM      2  C10 ASD A 601      84.008  51.752  43.230  0.00  0.00    +0.000 C 
ATOM      3  C11 ASD A 601      85.044  53.071  45.160  0.00  0.00    +0.000 C 
ATOM      4  C12 ASD A 601      85.141  54.412  45.882  0.00  0.00    +0.000 C 
ATOM      5  C13 ASD A 601      85.555  55.468  44.870  0.00  0.00    +0.000 C 
ATOM      6  C14 ASD A 601      84.459  55.561  43.809  0.00  0.00    +0.000 C 
ATOM      7  C15 ASD A 601      84.701  56.898  43.099  0.00  0.00    +0.000 C 
ATOM      8  C16 ASD A 601      85.031  57.844  44.263  0.00  0.00    +0.000 C 
ATOM      9  C17 ASD A 601      85.567  56.901  45.328  0.00  0.00    +0.000 C 
ATOM     10  C18 ASD A 601      86.946  55.169  44.305  0.00  0.00    +0.000 C 
ATOM     11  C19 ASD A 601      85.382  51.364  42.673  0.00  0.00    +0.000 C 
ATOM     12  C2  ASD A 601      82.939  49.450  43.571  0.00  0.00    +0.000 C 
ATOM     13  C3  ASD A 601      81.831  49.922  42.655  0.00  0.00    +0.000 C 
ATOM     14  C4  ASD A 601      82.007  51.018  41.871  0.00  0.00    +0.000 C 
ATOM     15  C5  ASD A 601      83.011  51.904  42.076  0.00  0.00    +0.000 C 
ATOM     16  C6  ASD A 601      83.128  53.086  41.141  0.00  0.00    +0.000 C 
ATOM     17  C7  ASD A 601      83.193  54.371  41.966  0.00  0.00    +0.000 C 
ATOM     18  C8  ASD A 601      84.312  54.283  42.998  0.00  0.00    +0.000 C 
ATOM     19  C9  ASD A 601      84.074  53.104  43.963  0.00  0.00    +0.000 C 
ATOM     20  O1  ASD A 601      80.778  49.296  42.639  0.00  0.00    +0.000 OA
ATOM     21  O2  ASD A 601      85.971  57.269  46.420  0.00  0.00    +0.000 OA
ENDROOT
TORSDOF 0
ENDMDL
MODEL 7
REMARK VINA RESULT:    -8.079      2.844      6.032
REMARK INTER + INTRA:          -8.079
REMARK INTER:                  -8.079
REMARK INTRA:                   0.000
REMARK UNBOUND:                 0.000
REMARK  Name = /content/outputs/docking/native_ligand.pdb
REMARK  2 active torsions:
REMARK  status: ('A' for Active; 'I' for Inactive)
REMARK    1  A    between atoms: C10_2  and  C19_11
REMARK    2  A    between atoms: C13_5  and  C18_10
REMARK                            x       y       z     vdW  Elec       q    Type
REMARK                         _______ _______ _______ _____ _____    ______ ____
ROOT
ATOM      1  C1  ASD A 601      84.969  56.924  43.530  0.00  0.00    +0.000 C 
ATOM      2  C10 ASD A 601      85.506  55.590  44.078  0.00  0.00    +0.000 C 
ATOM      3  C11 ASD A 601      84.198  54.349  42.265  0.00  0.00    +0.000 C 
ATOM      4  C12 ASD A 601      83.190  53.250  41.945  0.00  0.00    +0.000 C 
ATOM      5  C13 ASD A 601      83.702  51.947  42.538  0.00  0.00    +0.000 C 
ATOM      6  C14 ASD A 601      83.778  52.117  44.056  0.00  0.00    +0.000 C 
ATOM      7  C15 ASD A 601      83.861  50.692  44.614  0.00  0.00    +0.000 C 
ATOM      8  C16 ASD A 601      82.841  49.931  43.756  0.00  0.00    +0.000 C 
ATOM      9  C17 ASD A 601      82.792  50.751  42.476  0.00  0.00    +0.000 C 
ATOM     10  C18 ASD A 601      85.026  51.534  41.890  0.00  0.00    +0.000 C 
ATOM     11  C19 ASD A 601      86.851  55.264  43.421  0.00  0.00    +0.000 C 
ATOM     12  C2  ASD A 601      85.604  58.146  44.180  0.00  0.00    +0.000 C 
ATOM     13  C3  ASD A 601      85.414  58.011  45.675  0.00  0.00    +0.000 C 
ATOM     14  C4  ASD A 601      85.612  56.814  46.288  0.00  0.00    +0.000 C 
ATOM     15  C5  ASD A 601      85.679  55.649  45.600  0.00  0.00    +0.000 C 
ATOM     16  C6  ASD A 601      85.914  54.371  46.373  0.00  0.00    +0.000 C 
ATOM     17  C7  ASD A 601      84.837  53.354  45.995  0.00  0.00    +0.000 C 
ATOM     18  C8  ASD A 601      84.794  53.165  44.483  0.00  0.00    +0.000 C 
ATOM     19  C9  ASD A 601      84.467  54.495  43.774  0.00  0.00    +0.000 C 
ATOM     20  O1  ASD A 601      85.077  59.000  46.314  0.00  0.00    +0.000 OA
ATOM     21  O2  ASD A 601      82.105  50.461  41.510  0.00  0.00    +0.000 OA
ENDROOT
TORSDOF 0
ENDMDL
MODEL 8
REMARK VINA RESULT:    -8.074      3.163      5.476
REMARK INTER + INTRA:          -8.074
REMARK INTER:                  -8.074
REMARK INTRA:                   0.000
REMARK UNBOUND:                 0.000
REMARK  Name = /content/outputs/docking/native_ligand.pdb
REMARK  2 active torsions:
REMARK  status: ('A' for Active; 'I' for Inactive)
REMARK    1  A    between atoms: C10_2  and  C19_11
REMARK    2  A    between atoms: C13_5  and  C18_10
REMARK                            x       y       z     vdW  Elec       q    Type
REMARK                         _______ _______ _______ _____ _____    ______ ____
ROOT
ATOM      1  C1  ASD A 601      87.709  52.967  41.914  0.00  0.00    +0.000 C 
ATOM      2  C10 ASD A 601      87.118  51.849  42.791  0.00  0.00    +0.000 C 
ATOM      3  C11 ASD A 601      86.313  53.615  44.456  0.00  0.00    +0.000 C 
ATOM      4  C12 ASD A 601      86.299  54.089  45.906  0.00  0.00    +0.000 C 
ATOM      5  C13 ASD A 601      85.765  52.958  46.771  0.00  0.00    +0.000 C 
ATOM      6  C14 ASD A 601      86.729  51.778  46.650  0.00  0.00    +0.000 C 
ATOM      7  C15 ASD A 601      86.403  50.871  47.842  0.00  0.00    +0.000 C 
ATOM      8  C16 ASD A 601      86.209  51.875  48.988  0.00  0.00    +0.000 C 
ATOM      9  C17 ASD A 601      85.804  53.148  48.262  0.00  0.00    +0.000 C 
ATOM     10  C18 ASD A 601      84.319  52.622  46.401  0.00  0.00    +0.000 C 
ATOM     11  C19 ASD A 601      85.690  51.535  42.336  0.00  0.00    +0.000 C 
ATOM     12  C2  ASD A 601      88.226  52.474  40.569  0.00  0.00    +0.000 C 
ATOM     13  C3  ASD A 601      89.217  51.366  40.847  0.00  0.00    +0.000 C 
ATOM     14  C4  ASD A 601      88.948  50.422  41.787  0.00  0.00    +0.000 C 
ATOM     15  C5  ASD A 601      87.973  50.579  42.714  0.00  0.00    +0.000 C 
ATOM     16  C6  ASD A 601      87.743  49.465  43.711  0.00  0.00    +0.000 C 
ATOM     17  C7  ASD A 601      87.773  50.046  45.124  0.00  0.00    +0.000 C 
ATOM     18  C8  ASD A 601      86.783  51.200  45.244  0.00  0.00    +0.000 C 
ATOM     19  C9  ASD A 601      87.135  52.328  44.254  0.00  0.00    +0.000 C 
ATOM     20  O1  ASD A 601      90.262  51.342  40.209  0.00  0.00    +0.000 OA
ATOM     21  O2  ASD A 601      85.530  54.194  48.829  0.00  0.00    +0.000 OA
ENDROOT
TORSDOF 0
ENDMDL
MODEL 9
REMARK VINA RESULT:    -7.937      4.608      6.296
REMARK INTER + INTRA:          -7.937
REMARK INTER:                  -7.937
REMARK INTRA:                   0.000
REMARK UNBOUND:                 0.000
REMARK  Name = /content/outputs/docking/native_ligand.pdb
REMARK  2 active torsions:
REMARK  status: ('A' for Active; 'I' for Inactive)
REMARK    1  A    between atoms: C10_2  and  C19_11
REMARK    2  A    between atoms: C13_5  and  C18_10
REMARK                            x       y       z     vdW  Elec       q    Type
REMARK                         _______ _______ _______ _____ _____    ______ ____
ROOT
ATOM      1  C1  ASD A 601      82.711  51.068  42.452  0.00  0.00    +0.000 C 
ATOM      2  C10 ASD A 601      84.025  50.879  43.232  0.00  0.00    +0.000 C 
ATOM      3  C11 ASD A 601      85.170  52.533  41.654  0.00  0.00    +0.000 C 
ATOM      4  C12 ASD A 601      86.340  52.795  40.710  0.00  0.00    +0.000 C 
ATOM      5  C13 ASD A 601      87.631  52.553  41.474  0.00  0.00    +0.000 C 
ATOM      6  C14 ASD A 601      87.661  51.084  41.896  0.00  0.00    +0.000 C 
ATOM      7  C15 ASD A 601      89.125  50.799  42.250  0.00  0.00    +0.000 C 
ATOM      8  C16 ASD A 601      89.891  51.521  41.132  0.00  0.00    +0.000 C 
ATOM      9  C17 ASD A 601      88.918  52.605  40.698  0.00  0.00    +0.000 C 
ATOM     10  C18 ASD A 601      87.772  53.538  42.638  0.00  0.00    +0.000 C 
ATOM     11  C19 ASD A 601      84.076  51.864  44.404  0.00  0.00    +0.000 C 
ATOM     12  C2  ASD A 601      81.516  50.385  43.103  0.00  0.00    +0.000 C 
ATOM     13  C3  ASD A 601      81.878  48.928  43.292  0.00  0.00    +0.000 C 
ATOM     14  C4  ASD A 601      83.111  48.579  43.747  0.00  0.00    +0.000 C 
ATOM     15  C5  ASD A 601      84.151  49.446  43.760  0.00  0.00    +0.000 C 
ATOM     16  C6  ASD A 601      85.480  48.964  44.298  0.00  0.00    +0.000 C 
ATOM     17  C7  ASD A 601      86.570  49.254  43.266  0.00  0.00    +0.000 C 
ATOM     18  C8  ASD A 601      86.555  50.728  42.879  0.00  0.00    +0.000 C 
ATOM     19  C9  ASD A 601      85.196  51.119  42.263  0.00  0.00    +0.000 C 
ATOM     20  O1  ASD A 601      81.039  48.077  43.024  0.00  0.00    +0.000 OA
ATOM     21  O2  ASD A 601      89.163  53.428  39.829  0.00  0.00    +0.000 OA
ENDROOT
TORSDOF 0
ENDMDL
