REMARK  Name = /content/outputs/docking/native_ligand.pdb
REMARK  2 active torsions:
REMARK  status: ('A' for Active; 'I' for Inactive)
REMARK    1  A    between atoms: C10_2  and  C19_11
REMARK    2  A    between atoms: C13_5  and  C18_10
REMARK                            x       y       z     vdW  Elec       q    Type
REMARK                         _______ _______ _______ _____ _____    ______ ____
ROOT
ATOM      1  C1  ASD A 601      87.340  51.730  45.614  0.00  0.00    +0.000 C 
ATOM      2  C10 ASD A 601      86.009  52.398  46.001  0.00  0.00    +0.000 C 
ATOM      3  C11 ASD A 601      86.510  54.292  44.358  0.00  0.00    +0.000 C 
ATOM      4  C12 ASD A 601      86.640  55.797  44.147  0.00  0.00    +0.000 C 
ATOM      5  C13 ASD A 601      85.340  56.453  44.584  0.00  0.00    +0.000 C 
ATOM      6  C14 ASD A 601      85.153  56.181  46.077  0.00  0.00    +0.000 C 
ATOM      7  C15 ASD A 601      84.109  57.202  46.542  0.00  0.00    +0.000 C 
ATOM      8  C16 ASD A 601      84.544  58.485  45.819  0.00  0.00    +0.000 C 
ATOM      9  C17 ASD A 601      85.294  57.956  44.607  0.00  0.00    +0.000 C 
ATOM     10  C18 ASD A 601      84.171  55.984  43.714  0.00  0.00    +0.000 C 
ATOM     11  C19 ASD A 601      84.880  51.849  45.123  0.00  0.00    +0.000 C 
ATOM     12  C2  ASD A 601      87.521  50.343  46.216  0.00  0.00    +0.000 C 
ATOM     13  C3  ASD A 601      87.349  50.477  47.713  0.00  0.00    +0.000 C 
ATOM     14  C4  ASD A 601      86.352  51.246  48.225  0.00  0.00    +0.000 C 
ATOM     15  C5  ASD A 601      85.677  52.151  47.477  0.00  0.00    +0.000 C 
ATOM     16  C6  ASD A 601      84.576  52.950  48.137  0.00  0.00    +0.000 C 
ATOM     17  C7  ASD A 601      84.819  54.438  47.884  0.00  0.00    +0.000 C 
ATOM     18  C8  ASD A 601      84.968  54.704  46.390  0.00  0.00    +0.000 C 
ATOM     19  C9  ASD A 601      86.162  53.918  45.811  0.00  0.00    +0.000 C 
ATOM     20  O1  ASD A 601      88.127  49.880  48.447  0.00  0.00    +0.000 OA
ATOM     21  O2  ASD A 601      85.787  58.671  43.749  0.00  0.00    +0.000 OA
ENDROOT
TORSDOF 0
