MODEL 1
REMARK VINA RESULT:   -10.661      0.000      0.000
REMARK INTER + INTRA:         -10.661
REMARK INTER:                 -10.661
REMARK INTRA:                   0.000
REMARK UNBOUND:                 0.000
REMARK  Name = /content/outputs/docking/native_ligand.pdb
REMARK  2 active torsions:
REMARK  status: ('A' for Active; 'I' for Inactive)
REMARK    1  A    between atoms: C10_2  and  C19_11
REMARK    2  A    between atoms: C13_5  and  C18_10
REMARK                            x       y       z     vdW  Elec       q    Type
REMARK                         _______ _______ _______ _____ _____    ______ ____
ROOT
ATOM      1  C1  ASD A 601      87.327  51.687  45.447  0.00  0.00    +0.000 C 
ATOM      2  C10 ASD A 601      86.092  52.460  45.942  0.00  0.00    +0.000 C 
ATOM      3  C11 ASD A 601      86.549  54.264  44.189  0.00  0.00    +0.000 C 
ATOM      4  C12 ASD A 601      86.760  55.749  43.911  0.00  0.00    +0.000 C 
ATOM      5  C13 ASD A 601      85.560  56.510  44.453  0.00  0.00    +0.000 C 
ATOM      6  C14 ASD A 601      85.511  56.296  45.966  0.00  0.00    +0.000 C 
ATOM      7  C15 ASD A 601      84.593  57.403  46.497  0.00  0.00    +0.000 C 
ATOM      8  C16 ASD A 601      85.038  58.629  45.687  0.00  0.00    +0.000 C 
ATOM      9  C17 ASD A 601      85.620  58.012  44.425  0.00  0.00    +0.000 C 
ATOM     10  C18 ASD A 601      84.278  56.101  43.724  0.00  0.00    +0.000 C 
ATOM     11  C19 ASD A 601      84.843  51.969  45.204  0.00  0.00    +0.000 C 
ATOM     12  C2  ASD A 601      87.474  50.309  46.077  0.00  0.00    +0.000 C 
ATOM     13  C3  ASD A 601      87.467  50.499  47.578  0.00  0.00    +0.000 C 
ATOM     14  C4  ASD A 601      86.584  51.352  48.160  0.00  0.00    +0.000 C 
ATOM     15  C5  ASD A 601      85.899  52.281  47.452  0.00  0.00    +0.000 C 
ATOM     16  C6  ASD A 601      84.930  53.177  48.191  0.00  0.00    +0.000 C 
ATOM     17  C7  ASD A 601      85.247  54.635  47.860  0.00  0.00    +0.000 C 
ATOM     18  C8  ASD A 601      85.258  54.846  46.350  0.00  0.00    +0.000 C 
ATOM     19  C9  ASD A 601      86.329  53.959  45.682  0.00  0.00    +0.000 C 
ATOM     20  O1  ASD A 601      88.274  49.869  48.251  0.00  0.00    +0.000 OA
ATOM     21  O2  ASD A 601      86.070  58.664  43.496  0.00  0.00    +0.000 OA
ENDROOT
TORSDOF 0
ENDMDL
MODEL 2
REMARK VINA RESULT:    -9.010      2.780      3.924
REMARK INTER + INTRA:          -9.010
REMARK INTER:                  -9.010
REMARK INTRA:                   0.000
REMARK UNBOUND:                 0.000
REMARK  Name = /content/outputs/docking/native_ligand.pdb
REMARK  2 active torsions:
REMARK  status: ('A' for Active; 'I' for Inactive)
REMARK    1  A    between atoms: C10_2  and  C19_11
REMARK    2  A    between atoms: C13_5  and  C18_10
REMARK                            x       y       z     vdW  Elec       q    Type
REMARK                         _______ _______ _______ _____ _____    ______ ____
ROOT
ATOM      1  C1  ASD A 601      88.605  51.820  41.753  0.00  0.00    +0.000 C 
ATOM      2  C10 ASD A 601      87.641  51.522  42.914  0.00  0.00    +0.000 C 
ATOM      3  C11 ASD A 601      87.039  54.005  43.020  0.00  0.00    +0.000 C 
ATOM      4  C12 ASD A 601      86.920  55.253  43.889  0.00  0.00    +0.000 C 
ATOM      5  C13 ASD A 601      86.010  54.931  45.063  0.00  0.00    +0.000 C 
ATOM      6  C14 ASD A 601      86.672  53.824  45.883  0.00  0.00    +0.000 C 
ATOM      7  C15 ASD A 601      85.964  53.855  47.242  0.00  0.00    +0.000 C 
ATOM      8  C16 ASD A 601      85.845  55.359  47.528  0.00  0.00    +0.000 C 
ATOM      9  C17 ASD A 601      85.869  55.973  46.138  0.00  0.00    +0.000 C 
ATOM     10  C18 ASD A 601      84.597  54.591  44.582  0.00  0.00    +0.000 C 
ATOM     11  C19 ASD A 601      86.263  51.146  42.360  0.00  0.00    +0.000 C 
ATOM     12  C2  ASD A 601      89.185  50.568  41.109  0.00  0.00    +0.000 C 
ATOM     13  C3  ASD A 601      89.831  49.755  42.209  0.00  0.00    +0.000 C 
ATOM     14  C4  ASD A 601      89.206  49.599  43.406  0.00  0.00    +0.000 C 
ATOM     15  C5  ASD A 601      88.169  50.381  43.790  0.00  0.00    +0.000 C 
ATOM     16  C6  ASD A 601      87.535  50.120  45.138  0.00  0.00    +0.000 C 
ATOM     17  C7  ASD A 601      87.490  51.427  45.930  0.00  0.00    +0.000 C 
ATOM     18  C8  ASD A 601      86.796  52.515  45.117  0.00  0.00    +0.000 C 
ATOM     19  C9  ASD A 601      87.552  52.779  43.799  0.00  0.00    +0.000 C 
ATOM     20  O1  ASD A 601      90.923  49.245  41.995  0.00  0.00    +0.000 OA
ATOM     21  O2  ASD A 601      85.770  57.171  45.924  0.00  0.00    +0.000 OA
ENDROOT
TORSDOF 0
ENDMDL
MODEL 3
REMARK VINA RESULT:    -8.629      2.719      6.436
REMARK INTER + INTRA:          -8.629
REMARK INTER:                  -8.629
REMARK INTRA:                   0.000
REMARK UNBOUND:                 0.000
REMARK  Name = /content/outputs/docking/native_ligand.pdb
REMARK  2 active torsions:
REMARK  status: ('A' for Active; 'I' for Inactive)
REMARK    1  A    between atoms: C10_2  and  C19_11
REMARK    2  A    between atoms: C13_5  and  C18_10
REMARK                            x       y       z     vdW  Elec       q    Type
REMARK                         _______ _______ _______ _____ _____    ______ ____
ROOT
ATOM      1  C1  ASD A 601      86.153  53.286  46.779  0.00  0.00    +0.000 C 
ATOM      2  C10 ASD A 601      86.016  53.084  45.260  0.00  0.00    +0.000 C 
ATOM      3  C11 ASD A 601      87.284  50.873  45.464  0.00  0.00    +0.000 C 
ATOM      4  C12 ASD A 601      88.454  50.023  44.977  0.00  0.00    +0.000 C 
ATOM      5  C13 ASD A 601      88.339  49.876  43.468  0.00  0.00    +0.000 C 
ATOM      6  C14 ASD A 601      88.453  51.269  42.848  0.00  0.00    +0.000 C 
ATOM      7  C15 ASD A 601      88.774  51.024  41.370  0.00  0.00    +0.000 C 
ATOM      8  C16 ASD A 601      89.800  49.883  41.430  0.00  0.00    +0.000 C 
ATOM      9  C17 ASD A 601      89.474  49.200  42.749  0.00  0.00    +0.000 C 
ATOM     10  C18 ASD A 601      87.060  49.127  43.087  0.00  0.00    +0.000 C 
ATOM     11  C19 ASD A 601      84.695  52.371  44.950  0.00  0.00    +0.000 C 
ATOM     12  C2  ASD A 601      85.364  54.477  47.307  0.00  0.00    +0.000 C 
ATOM     13  C3  ASD A 601      85.800  55.690  46.516  0.00  0.00    +0.000 C 
ATOM     14  C4  ASD A 601      85.967  55.609  45.169  0.00  0.00    +0.000 C 
ATOM     15  C5  ASD A 601      86.061  54.425  44.519  0.00  0.00    +0.000 C 
ATOM     16  C6  ASD A 601      86.234  54.441  43.017  0.00  0.00    +0.000 C 
ATOM     17  C7  ASD A 601      87.443  53.583  42.646  0.00  0.00    +0.000 C 
ATOM     18  C8  ASD A 601      87.303  52.185  43.238  0.00  0.00    +0.000 C 
ATOM     19  C9  ASD A 601      87.216  52.249  44.777  0.00  0.00    +0.000 C 
ATOM     20  O1  ASD A 601      85.997  56.740  47.115  0.00  0.00    +0.000 OA
ATOM     21  O2  ASD A 601      90.058  48.212  43.164  0.00  0.00    +0.000 OA
ENDROOT
TORSDOF 0
ENDMDL
MODEL 4
REMARK VINA RESULT:    -8.293      3.379      5.583
REMARK INTER + INTRA:          -8.293
REMARK INTER:                  -8.293
REMARK INTRA:                   0.000
REMARK UNBOUND:                 0.000
REMARK  Name = /content/outputs/docking/native_ligand.pdb
REMARK  2 active torsions:
REMARK  status: ('A' for Active; 'I' for Inactive)
REMARK    1  A    between atoms: C10_2  and  C19_11
REMARK    2  A    between atoms: C13_5  and  C18_10
REMARK                            x       y       z     vdW  Elec       q    Type
REMARK                         _______ _______ _______ _____ _____    ______ ____
ROOT
ATOM      1  C1  ASD A 601      84.288  53.121  46.705  0.00  0.00    +0.000 C 
ATOM      2  C10 ASD A 601      85.771  52.715  46.660  0.00  0.00    +0.000 C 
ATOM      3  C11 ASD A 601      85.595  52.448  44.123  0.00  0.00    +0.000 C 
ATOM      4  C12 ASD A 601      85.816  51.540  42.917  0.00  0.00    +0.000 C 
ATOM      5  C13 ASD A 601      87.271  51.100  42.913  0.00  0.00    +0.000 C 
ATOM      6  C14 ASD A 601      87.524  50.293  44.187  0.00  0.00    +0.000 C 
ATOM      7  C15 ASD A 601      88.823  49.525  43.923  0.00  0.00    +0.000 C 
ATOM      8  C16 ASD A 601      88.648  49.050  42.473  0.00  0.00    +0.000 C 
ATOM      9  C17 ASD A 601      87.683  50.073  41.894  0.00  0.00    +0.000 C 
ATOM     10  C18 ASD A 601      88.205  52.300  42.739  0.00  0.00    +0.000 C 
ATOM     11  C19 ASD A 601      86.647  53.966  46.531  0.00  0.00    +0.000 C 
ATOM     12  C2  ASD A 601      83.832  53.604  48.075  0.00  0.00    +0.000 C 
ATOM     13  C3  ASD A 601      84.169  52.515  49.070  0.00  0.00    +0.000 C 
ATOM     14  C4  ASD A 601      85.366  51.874  49.009  0.00  0.00    +0.000 C 
ATOM     15  C5  ASD A 601      86.168  51.938  47.920  0.00  0.00    +0.000 C 
ATOM     16  C6  ASD A 601      87.487  51.199  47.955  0.00  0.00    +0.000 C 
ATOM     17  C7  ASD A 601      87.590  50.305  46.719  0.00  0.00    +0.000 C 
ATOM     18  C8  ASD A 601      87.373  51.125  45.452  0.00  0.00    +0.000 C 
ATOM     19  C9  ASD A 601      85.975  51.777  45.456  0.00  0.00    +0.000 C 
ATOM     20  O1  ASD A 601      83.341  52.227  49.925  0.00  0.00    +0.000 OA
ATOM     21  O2  ASD A 601      87.301  50.064  40.735  0.00  0.00    +0.000 OA
ENDROOT
TORSDOF 0
ENDMDL
MODEL 5
REMARK VINA RESULT:    -8.256      3.200      4.724
REMARK INTER + INTRA:          -8.256
REMARK INTER:                  -8.256
REMARK INTRA:                   0.000
REMARK UNBOUND:                 0.000
REMARK  Name = /content/outputs/docking/native_ligand.pdb
REMARK  2 active torsions:
REMARK  status: ('A' for Active; 'I' for Inactive)
REMARK    1  A    between atoms: C10_2  and  C19_11
REMARK    2  A    between atoms: C13_5  and  C18_10
REMARK                            x       y       z     vdW  Elec       q    Type
REMARK                         _______ _______ _______ _____ _____    ______ ____
ROOT
ATOM      1  C1  ASD A 601      83.590  50.635  44.289  0.00  0.00    +0.000 C 
ATOM      2  C10 ASD A 601      84.055  51.692  43.273  0.00  0.00    +0.000 C 
ATOM      3  C11 ASD A 601      85.044  53.065  45.190  0.00  0.00    +0.000 C 
ATOM      4  C12 ASD A 601      85.109  54.419  45.889  0.00  0.00    +0.000 C 
ATOM      5  C13 ASD A 601      85.515  55.465  44.864  0.00  0.00    +0.000 C 
ATOM      6  C14 ASD A 601      84.429  55.519  43.789  0.00  0.00    +0.000 C 
ATOM      7  C15 ASD A 601      84.655  56.848  43.059  0.00  0.00    +0.000 C 
ATOM      8  C16 ASD A 601      84.954  57.820  44.209  0.00  0.00    +0.000 C 
ATOM      9  C17 ASD A 601      85.495  56.905  45.296  0.00  0.00    +0.000 C 
ATOM     10  C18 ASD A 601      86.918  55.182  44.320  0.00  0.00    +0.000 C 
ATOM     11  C19 ASD A 601      85.442  51.321  42.738  0.00  0.00    +0.000 C 
ATOM     12  C2  ASD A 601      83.024  49.378  43.642  0.00  0.00    +0.000 C 
ATOM     13  C3  ASD A 601      81.919  49.813  42.706  0.00  0.00    +0.000 C 
ATOM     14  C4  ASD A 601      82.083  50.899  41.904  0.00  0.00    +0.000 C 
ATOM     15  C5  ASD A 601      83.068  51.806  42.105  0.00  0.00    +0.000 C 
ATOM     16  C6  ASD A 601      83.175  52.973  41.150  0.00  0.00    +0.000 C 
ATOM     17  C7  ASD A 601      83.206  54.274  41.954  0.00  0.00    +0.000 C 
ATOM     18  C8  ASD A 601      84.315  54.224  42.999  0.00  0.00    +0.000 C 
ATOM     19  C9  ASD A 601      84.088  53.058  43.982  0.00  0.00    +0.000 C 
ATOM     20  O1  ASD A 601      80.878  49.168  42.690  0.00  0.00    +0.000 OA
ATOM     21  O2  ASD A 601      85.880  57.300  46.385  0.00  0.00    +0.000 OA
ENDROOT
TORSDOF 0
ENDMDL
MODEL 6
REMARK VINA RESULT:    -8.080      2.835      6.029
REMARK INTER + INTRA:          -8.080
REMARK INTER:                  -8.080
REMARK INTRA:                   0.000
REMARK UNBOUND:                 0.000
REMARK  Name = /content/outputs/docking/native_ligand.pdb
REMARK  2 active torsions:
REMARK  status: ('A' for Active; 'I' for Inactive)
REMARK    1  A    between atoms: C10_2  and  C19_11
REMARK    2  A    between atoms: C13_5  and  C18_10
REMARK                            x       y       z     vdW  Elec       q    Type
REMARK                         _______ _______ _______ _____ _____    ______ ____
ROOT
ATOM      1  C1  ASD A 601      84.963  56.921  43.571  0.00  0.00    +0.000 C 
ATOM      2  C10 ASD A 601      85.511  55.589  44.113  0.00  0.00    +0.000 C 
ATOM      3  C11 ASD A 601      84.194  54.342  42.311  0.00  0.00    +0.000 C 
ATOM      4  C12 ASD A 601      83.189  53.238  42.000  0.00  0.00    +0.000 C 
ATOM      5  C13 ASD A 601      83.713  51.937  42.587  0.00  0.00    +0.000 C 
ATOM      6  C14 ASD A 601      83.802  52.107  44.104  0.00  0.00    +0.000 C 
ATOM      7  C15 ASD A 601      83.898  50.683  44.661  0.00  0.00    +0.000 C 
ATOM      8  C16 ASD A 601      82.874  49.916  43.812  0.00  0.00    +0.000 C 
ATOM      9  C17 ASD A 601      82.809  50.737  42.533  0.00  0.00    +0.000 C 
ATOM     10  C18 ASD A 601      85.034  51.532  41.927  0.00  0.00    +0.000 C 
ATOM     11  C19 ASD A 601      86.852  55.271  43.443  0.00  0.00    +0.000 C 
ATOM     12  C2  ASD A 601      85.597  58.146  44.215  0.00  0.00    +0.000 C 
ATOM     13  C3  ASD A 601      85.421  58.009  45.711  0.00  0.00    +0.000 C 
ATOM     14  C4  ASD A 601      85.631  56.813  46.322  0.00  0.00    +0.000 C 
ATOM     15  C5  ASD A 601      85.698  55.648  45.633  0.00  0.00    +0.000 C 
ATOM     16  C6  ASD A 601      85.947  54.371  46.403  0.00  0.00    +0.000 C 
ATOM     17  C7  ASD A 601      84.872  53.349  46.035  0.00  0.00    +0.000 C 
ATOM     18  C8  ASD A 601      84.817  53.160  44.523  0.00  0.00    +0.000 C 
ATOM     19  C9  ASD A 601      84.476  54.489  43.818  0.00  0.00    +0.000 C 
ATOM     20  O1  ASD A 601      85.085  58.996  46.354  0.00  0.00    +0.000 OA
ATOM     21  O2  ASD A 601      82.114  50.443  41.573  0.00  0.00    +0.000 OA
ENDROOT
TORSDOF 0
ENDMDL
MODEL 7
REMARK VINA RESULT:    -7.941      2.657      4.500
REMARK INTER + INTRA:          -7.941
REMARK INTER:                  -7.941
REMARK INTRA:                   0.000
REMARK UNBOUND:                 0.000
REMARK  Name = /content/outputs/docking/native_ligand.pdb
REMARK  2 active torsions:
REMARK  status: ('A' for Active; 'I' for Inactive)
REMARK    1  A    between atoms: C10_2  and  C19_11
REMARK    2  A    between atoms: C13_5  and  C18_10
REMARK                            x       y       z     vdW  Elec       q    Type
REMARK                         _______ _______ _______ _____ _____    ______ ____
ROOT
ATOM      1  C1  ASD A 601      83.811  53.935  47.545  0.00  0.00    +0.000 C 
ATOM      2  C10 ASD A 601      85.255  53.569  47.157  0.00  0.00    +0.000 C 
ATOM      3  C11 ASD A 601      84.754  54.255  44.745  0.00  0.00    +0.000 C 
ATOM      4  C12 ASD A 601      84.777  53.855  43.274  0.00  0.00    +0.000 C 
ATOM      5  C13 ASD A 601      86.196  53.443  42.915  0.00  0.00    +0.000 C 
ATOM      6  C14 ASD A 601      86.561  52.223  43.761  0.00  0.00    +0.000 C 
ATOM      7  C15 ASD A 601      87.777  51.602  43.064  0.00  0.00    +0.000 C 
ATOM      8  C16 ASD A 601      87.400  51.696  41.578  0.00  0.00    +0.000 C 
ATOM      9  C17 ASD A 601      86.425  52.862  41.547  0.00  0.00    +0.000 C 
ATOM     10  C18 ASD A 601      87.163  54.620  43.068  0.00  0.00    +0.000 C 
ATOM     11  C19 ASD A 601      86.171  54.776  47.378  0.00  0.00    +0.000 C 
ATOM     12  C2  ASD A 601      83.553  53.880  49.045  0.00  0.00    +0.000 C 
ATOM     13  C3  ASD A 601      83.953  52.500  49.519  0.00  0.00    +0.000 C 
ATOM     14  C4  ASD A 601      85.099  51.923  49.069  0.00  0.00    +0.000 C 
ATOM     15  C5  ASD A 601      85.763  52.381  47.982  0.00  0.00    +0.000 C 
ATOM     16  C6  ASD A 601      87.036  51.677  47.568  0.00  0.00    +0.000 C 
ATOM     17  C7  ASD A 601      86.940  51.301  46.090  0.00  0.00    +0.000 C 
ATOM     18  C8  ASD A 601      86.610  52.530  45.250  0.00  0.00    +0.000 C 
ATOM     19  C9  ASD A 601      85.260  53.140  45.679  0.00  0.00    +0.000 C 
ATOM     20  O1  ASD A 601      83.223  51.920  50.313  0.00  0.00    +0.000 OA
ATOM     21  O2  ASD A 601      85.903  53.283  40.526  0.00  0.00    +0.000 OA
ENDROOT
TORSDOF 0
ENDMDL
MODEL 8
REMARK VINA RESULT:    -7.913      2.734      7.046
REMARK INTER + INTRA:          -7.913
REMARK INTER:                  -7.913
REMARK INTRA:                   0.000
REMARK UNBOUND:                 0.000
REMARK  Name = /content/outputs/docking/native_ligand.pdb
REMARK  2 active torsions:
REMARK  status: ('A' for Active; 'I' for Inactive)
REMARK    1  A    between atoms: C10_2  and  C19_11
REMARK    2  A    between atoms: C13_5  and  C18_10
REMARK                            x       y       z     vdW  Elec       q    Type
REMARK                         _______ _______ _______ _____ _____    ______ ____
ROOT
ATOM      1  C1  ASD A 601      85.352  54.587  44.759  0.00  0.00    +0.000 C 
ATOM      2  C10 ASD A 601      85.246  53.572  43.607  0.00  0.00    +0.000 C 
ATOM      3  C11 ASD A 601      86.806  51.998  44.883  0.00  0.00    +0.000 C 
ATOM      4  C12 ASD A 601      88.082  51.163  44.850  0.00  0.00    +0.000 C 
ATOM      5  C13 ASD A 601      87.991  50.202  43.675  0.00  0.00    +0.000 C 
ATOM      6  C14 ASD A 601      87.913  51.030  42.392  0.00  0.00    +0.000 C 
ATOM      7  C15 ASD A 601      88.267  50.055  41.264  0.00  0.00    +0.000 C 
ATOM      8  C16 ASD A 601      89.440  49.261  41.857  0.00  0.00    +0.000 C 
ATOM      9  C17 ASD A 601      89.209  49.379  43.355  0.00  0.00    +0.000 C 
ATOM     10  C18 ASD A 601      86.827  49.224  43.857  0.00  0.00    +0.000 C 
ATOM     11  C19 ASD A 601      84.037  52.659  43.832  0.00  0.00    +0.000 C 
ATOM     12  C2  ASD A 601      84.407  55.772  44.613  0.00  0.00    +0.000 C 
ATOM     13  C3  ASD A 601      84.673  56.395  43.261  0.00  0.00    +0.000 C 
ATOM     14  C4  ASD A 601      84.852  55.611  42.165  0.00  0.00    +0.000 C 
ATOM     15  C5  ASD A 601      85.108  54.284  42.257  0.00  0.00    +0.000 C 
ATOM     16  C6  ASD A 601      85.280  53.496  40.978  0.00  0.00    +0.000 C 
ATOM     17  C7  ASD A 601      86.596  52.720  41.043  0.00  0.00    +0.000 C 
ATOM     18  C8  ASD A 601      86.648  51.870  42.307  0.00  0.00    +0.000 C 
ATOM     19  C9  ASD A 601      86.550  52.755  43.566  0.00  0.00    +0.000 C 
ATOM     20  O1  ASD A 601      84.724  57.616  43.179  0.00  0.00    +0.000 OA
ATOM     21  O2  ASD A 601      89.923  48.854  44.195  0.00  0.00    +0.000 OA
ENDROOT
TORSDOF 0
ENDMDL
MODEL 9
REMARK VINA RESULT:    -7.863      2.822      6.025
REMARK INTER + INTRA:          -7.863
REMARK INTER:                  -7.863
REMARK INTRA:                   0.000
REMARK UNBOUND:                 0.000
REMARK  Name = /content/outputs/docking/native_ligand.pdb
REMARK  2 active torsions:
REMARK  status: ('A' for Active; 'I' for Inactive)
REMARK    1  A    between atoms: C10_2  and  C19_11
REMARK    2  A    between atoms: C13_5  and  C18_10
REMARK                            x       y       z     vdW  Elec       q    Type
REMARK                         _______ _______ _______ _____ _____    ______ ____
ROOT
ATOM      1  C1  ASD A 601      84.783  55.517  43.903  0.00  0.00    +0.000 C 
ATOM      2  C10 ASD A 601      86.032  54.822  44.471  0.00  0.00    +0.000 C 
ATOM      3  C11 ASD A 601      86.245  53.487  42.300  0.00  0.00    +0.000 C 
ATOM      4  C12 ASD A 601      86.371  52.110  41.656  0.00  0.00    +0.000 C 
ATOM      5  C13 ASD A 601      87.576  51.409  42.263  0.00  0.00    +0.000 C 
ATOM      6  C14 ASD A 601      87.313  51.230  43.759  0.00  0.00    +0.000 C 
ATOM      7  C15 ASD A 601      88.313  50.162  44.215  0.00  0.00    +0.000 C 
ATOM      8  C16 ASD A 601      88.259  49.137  43.073  0.00  0.00    +0.000 C 
ATOM      9  C17 ASD A 601      87.806  49.972  41.886  0.00  0.00    +0.000 C 
ATOM     10  C18 ASD A 601      88.867  52.167  41.944  0.00  0.00    +0.000 C 
ATOM     11  C19 ASD A 601      87.278  55.656  44.155  0.00  0.00    +0.000 C 
ATOM     12  C2  ASD A 601      84.268  56.651  44.780  0.00  0.00    +0.000 C 
ATOM     13  C3  ASD A 601      84.042  56.083  46.163  0.00  0.00    +0.000 C 
ATOM     14  C4  ASD A 601      84.952  55.239  46.718  0.00  0.00    +0.000 C 
ATOM     15  C5  ASD A 601      85.915  54.629  45.987  0.00  0.00    +0.000 C 
ATOM     16  C6  ASD A 601      86.888  53.717  46.700  0.00  0.00    +0.000 C 
ATOM     17  C7  ASD A 601      86.916  52.364  45.988  0.00  0.00    +0.000 C 
ATOM     18  C8  ASD A 601      87.215  52.552  44.505  0.00  0.00    +0.000 C 
ATOM     19  C9  ASD A 601      86.133  53.423  43.835  0.00  0.00    +0.000 C 
ATOM     20  O1  ASD A 601      83.024  56.399  46.766  0.00  0.00    +0.000 OA
ATOM     21  O2  ASD A 601      87.661  49.526  40.759  0.00  0.00    +0.000 OA
ENDROOT
TORSDOF 0
ENDMDL
