MODEL 1
REMARK VINA RESULT:   -10.660      0.000      0.000
REMARK INTER + INTRA:         -10.660
REMARK INTER:                 -10.660
REMARK INTRA:                   0.000
REMARK UNBOUND:                 0.000
REMARK  Name = /content/outputs/docking/native_ligand.pdb
REMARK  2 active torsions:
REMARK  status: ('A' for Active; 'I' for Inactive)
REMARK    1  A    between atoms: C10_2  and  C19_11
REMARK    2  A    between atoms: C13_5  and  C18_10
REMARK                            x       y       z     vdW  Elec       q    Type
REMARK                         _______ _______ _______ _____ _____    ______ ____
ROOT
ATOM      1  C1  ASD A 601      87.318  51.700  45.440  0.00  0.00    +0.000 C 
ATOM      2  C10 ASD A 601      86.086  52.475  45.939  0.00  0.00    +0.000 C 
ATOM      3  C11 ASD A 601      86.542  54.279  44.185  0.00  0.00    +0.000 C 
ATOM      4  C12 ASD A 601      86.754  55.763  43.907  0.00  0.00    +0.000 C 
ATOM      5  C13 ASD A 601      85.557  56.526  44.452  0.00  0.00    +0.000 C 
ATOM      6  C14 ASD A 601      85.511  56.311  45.966  0.00  0.00    +0.000 C 
ATOM      7  C15 ASD A 601      84.597  57.420  46.499  0.00  0.00    +0.000 C 
ATOM      8  C16 ASD A 601      85.042  58.646  45.689  0.00  0.00    +0.000 C 
ATOM      9  C17 ASD A 601      85.620  58.028  44.425  0.00  0.00    +0.000 C 
ATOM     10  C18 ASD A 601      84.272  56.119  43.726  0.00  0.00    +0.000 C 
ATOM     11  C19 ASD A 601      84.834  51.986  45.203  0.00  0.00    +0.000 C 
ATOM     12  C2  ASD A 601      87.464  50.321  46.070  0.00  0.00    +0.000 C 
ATOM     13  C3  ASD A 601      87.462  50.510  47.571  0.00  0.00    +0.000 C 
ATOM     14  C4  ASD A 601      86.582  51.365  48.155  0.00  0.00    +0.000 C 
ATOM     15  C5  ASD A 601      85.897  52.296  47.449  0.00  0.00    +0.000 C 
ATOM     16  C6  ASD A 601      84.931  53.192  48.191  0.00  0.00    +0.000 C 
ATOM     17  C7  ASD A 601      85.250  54.651  47.860  0.00  0.00    +0.000 C 
ATOM     18  C8  ASD A 601      85.257  54.862  46.350  0.00  0.00    +0.000 C 
ATOM     19  C9  ASD A 601      86.325  53.973  45.679  0.00  0.00    +0.000 C 
ATOM     20  O1  ASD A 601      88.270  49.879  48.241  0.00  0.00    +0.000 OA
ATOM     21  O2  ASD A 601      86.068  58.680  43.495  0.00  0.00    +0.000 OA
ENDROOT
TORSDOF 0
ENDMDL
MODEL 2
REMARK VINA RESULT:    -9.020      2.815      3.975
REMARK INTER + INTRA:          -9.020
REMARK INTER:                  -9.020
REMARK INTRA:                   0.000
REMARK UNBOUND:                 0.000
REMARK  Name = /content/outputs/docking/native_ligand.pdb
REMARK  2 active torsions:
REMARK  status: ('A' for Active; 'I' for Inactive)
REMARK    1  A    between atoms: C10_2  and  C19_11
REMARK    2  A    between atoms: C13_5  and  C18_10
REMARK                            x       y       z     vdW  Elec       q    Type
REMARK                         _______ _______ _______ _____ _____    ______ ____
ROOT
ATOM      1  C1  ASD A 601      88.588  51.719  41.714  0.00  0.00    +0.000 C 
ATOM      2  C10 ASD A 601      87.643  51.433  42.894  0.00  0.00    +0.000 C 
ATOM      3  C11 ASD A 601      87.048  53.918  42.987  0.00  0.00    +0.000 C 
ATOM      4  C12 ASD A 601      86.946  55.175  43.846  0.00  0.00    +0.000 C 
ATOM      5  C13 ASD A 601      86.055  54.865  45.039  0.00  0.00    +0.000 C 
ATOM      6  C14 ASD A 601      86.729  53.764  45.858  0.00  0.00    +0.000 C 
ATOM      7  C15 ASD A 601      86.044  53.808  47.228  0.00  0.00    +0.000 C 
ATOM      8  C16 ASD A 601      85.933  55.315  47.502  0.00  0.00    +0.000 C 
ATOM      9  C17 ASD A 601      85.934  55.917  46.106  0.00  0.00    +0.000 C 
ATOM     10  C18 ASD A 601      84.634  54.524  44.585  0.00  0.00    +0.000 C 
ATOM     11  C19 ASD A 601      86.256  51.055  42.366  0.00  0.00    +0.000 C 
ATOM     12  C2  ASD A 601      89.155  50.461  41.071  0.00  0.00    +0.000 C 
ATOM     13  C3  ASD A 601      89.818  49.656  42.167  0.00  0.00    +0.000 C 
ATOM     14  C4  ASD A 601      89.214  49.512  43.377  0.00  0.00    +0.000 C 
ATOM     15  C5  ASD A 601      88.185  50.299  43.771  0.00  0.00    +0.000 C 
ATOM     16  C6  ASD A 601      87.572  50.052  45.132  0.00  0.00    +0.000 C 
ATOM     17  C7  ASD A 601      87.544  51.366  45.912  0.00  0.00    +0.000 C 
ATOM     18  C8  ASD A 601      86.838  52.448  45.102  0.00  0.00    +0.000 C 
ATOM     19  C9  ASD A 601      87.571  52.698  43.768  0.00  0.00    +0.000 C 
ATOM     20  O1  ASD A 601      90.906  49.142  41.940  0.00  0.00    +0.000 OA
ATOM     21  O2  ASD A 601      85.834  57.113  45.883  0.00  0.00    +0.000 OA
ENDROOT
TORSDOF 0
ENDMDL
MODEL 3
REMARK VINA RESULT:    -8.634      2.719      6.441
REMARK INTER + INTRA:          -8.634
REMARK INTER:                  -8.634
REMARK INTRA:                   0.000
REMARK UNBOUND:                 0.000
REMARK  Name = /content/outputs/docking/native_ligand.pdb
REMARK  2 active torsions:
REMARK  status: ('A' for Active; 'I' for Inactive)
REMARK    1  A    between atoms: C10_2  and  C19_11
REMARK    2  A    between atoms: C13_5  and  C18_10
REMARK                            x       y       z     vdW  Elec       q    Type
REMARK                         _______ _______ _______ _____ _____    ______ ____
ROOT
ATOM      1  C1  ASD A 601      86.152  53.286  46.779  0.00  0.00    +0.000 C 
ATOM      2  C10 ASD A 601      86.015  53.084  45.260  0.00  0.00    +0.000 C 
ATOM      3  C11 ASD A 601      87.284  50.873  45.464  0.00  0.00    +0.000 C 
ATOM      4  C12 ASD A 601      88.453  50.024  44.978  0.00  0.00    +0.000 C 
ATOM      5  C13 ASD A 601      88.339  49.876  43.469  0.00  0.00    +0.000 C 
ATOM      6  C14 ASD A 601      88.452  51.269  42.849  0.00  0.00    +0.000 C 
ATOM      7  C15 ASD A 601      88.773  51.024  41.370  0.00  0.00    +0.000 C 
ATOM      8  C16 ASD A 601      89.799  49.883  41.430  0.00  0.00    +0.000 C 
ATOM      9  C17 ASD A 601      89.473  49.200  42.749  0.00  0.00    +0.000 C 
ATOM     10  C18 ASD A 601      87.059  49.127  43.088  0.00  0.00    +0.000 C 
ATOM     11  C19 ASD A 601      84.695  52.371  44.950  0.00  0.00    +0.000 C 
ATOM     12  C2  ASD A 601      85.364  54.477  47.307  0.00  0.00    +0.000 C 
ATOM     13  C3  ASD A 601      85.799  55.690  46.516  0.00  0.00    +0.000 C 
ATOM     14  C4  ASD A 601      85.966  55.610  45.169  0.00  0.00    +0.000 C 
ATOM     15  C5  ASD A 601      86.060  54.425  44.519  0.00  0.00    +0.000 C 
ATOM     16  C6  ASD A 601      86.233  54.441  43.018  0.00  0.00    +0.000 C 
ATOM     17  C7  ASD A 601      87.442  53.583  42.645  0.00  0.00    +0.000 C 
ATOM     18  C8  ASD A 601      87.302  52.185  43.238  0.00  0.00    +0.000 C 
ATOM     19  C9  ASD A 601      87.215  52.250  44.777  0.00  0.00    +0.000 C 
ATOM     20  O1  ASD A 601      85.997  56.740  47.115  0.00  0.00    +0.000 OA
ATOM     21  O2  ASD A 601      90.058  48.212  43.164  0.00  0.00    +0.000 OA
ENDROOT
TORSDOF 0
ENDMDL
MODEL 4
REMARK VINA RESULT:    -8.325      2.515      5.744
REMARK INTER + INTRA:          -8.325
REMARK INTER:                  -8.325
REMARK INTRA:                   0.000
REMARK UNBOUND:                 0.000
REMARK  Name = /content/outputs/docking/native_ligand.pdb
REMARK  2 active torsions:
REMARK  status: ('A' for Active; 'I' for Inactive)
REMARK    1  A    between atoms: C10_2  and  C19_11
REMARK    2  A    between atoms: C13_5  and  C18_10
REMARK                            x       y       z     vdW  Elec       q    Type
REMARK                         _______ _______ _______ _____ _____    ______ ____
ROOT
ATOM      1  C1  ASD A 601      84.794  53.096  41.941  0.00  0.00    +0.000 C 
ATOM      2  C10 ASD A 601      85.312  54.169  42.914  0.00  0.00    +0.000 C 
ATOM      3  C11 ASD A 601      85.021  52.521  44.847  0.00  0.00    +0.000 C 
ATOM      4  C12 ASD A 601      84.417  52.263  46.224  0.00  0.00    +0.000 C 
ATOM      5  C13 ASD A 601      84.890  53.360  47.165  0.00  0.00    +0.000 C 
ATOM      6  C14 ASD A 601      84.360  54.694  46.638  0.00  0.00    +0.000 C 
ATOM      7  C15 ASD A 601      84.478  55.665  47.818  0.00  0.00    +0.000 C 
ATOM      8  C16 ASD A 601      84.005  54.814  49.006  0.00  0.00    +0.000 C 
ATOM      9  C17 ASD A 601      84.296  53.395  48.546  0.00  0.00    +0.000 C 
ATOM     10  C18 ASD A 601      86.411  53.316  47.334  0.00  0.00    +0.000 C 
ATOM     11  C19 ASD A 601      86.840  54.097  42.999  0.00  0.00    +0.000 C 
ATOM     12  C2  ASD A 601      84.913  53.496  40.476  0.00  0.00    +0.000 C 
ATOM     13  C3  ASD A 601      84.203  54.822  40.314  0.00  0.00    +0.000 C 
ATOM     14  C4  ASD A 601      84.365  55.806  41.237  0.00  0.00    +0.000 C 
ATOM     15  C5  ASD A 601      84.889  55.572  42.464  0.00  0.00    +0.000 C 
ATOM     16  C6  ASD A 601      85.039  56.737  43.416  0.00  0.00    +0.000 C 
ATOM     17  C7  ASD A 601      84.379  56.380  44.748  0.00  0.00    +0.000 C 
ATOM     18  C8  ASD A 601      84.941  55.067  45.282  0.00  0.00    +0.000 C 
ATOM     19  C9  ASD A 601      84.674  53.915  44.292  0.00  0.00    +0.000 C 
ATOM     20  O1  ASD A 601      83.483  54.984  39.337  0.00  0.00    +0.000 OA
ATOM     21  O2  ASD A 601      84.083  52.404  49.227  0.00  0.00    +0.000 OA
ENDROOT
TORSDOF 0
ENDMDL
MODEL 5
REMARK VINA RESULT:    -8.291      3.374      5.573
REMARK INTER + INTRA:          -8.291
REMARK INTER:                  -8.291
REMARK INTRA:                   0.000
REMARK UNBOUND:                 0.000
REMARK  Name = /content/outputs/docking/native_ligand.pdb
REMARK  2 active torsions:
REMARK  status: ('A' for Active; 'I' for Inactive)
REMARK    1  A    between atoms: C10_2  and  C19_11
REMARK    2  A    between atoms: C13_5  and  C18_10
REMARK                            x       y       z     vdW  Elec       q    Type
REMARK                         _______ _______ _______ _____ _____    ______ ____
ROOT
ATOM      1  C1  ASD A 601      84.285  53.108  46.696  0.00  0.00    +0.000 C 
ATOM      2  C10 ASD A 601      85.772  52.715  46.649  0.00  0.00    +0.000 C 
ATOM      3  C11 ASD A 601      85.599  52.463  44.110  0.00  0.00    +0.000 C 
ATOM      4  C12 ASD A 601      85.829  51.566  42.898  0.00  0.00    +0.000 C 
ATOM      5  C13 ASD A 601      87.288  51.139  42.891  0.00  0.00    +0.000 C 
ATOM      6  C14 ASD A 601      87.547  50.326  44.161  0.00  0.00    +0.000 C 
ATOM      7  C15 ASD A 601      88.854  49.571  43.892  0.00  0.00    +0.000 C 
ATOM      8  C16 ASD A 601      88.683  49.105  42.439  0.00  0.00    +0.000 C 
ATOM      9  C17 ASD A 601      87.709  50.122  41.866  0.00  0.00    +0.000 C 
ATOM     10  C18 ASD A 601      88.211  52.348  42.726  0.00  0.00    +0.000 C 
ATOM     11  C19 ASD A 601      86.636  53.975  46.529  0.00  0.00    +0.000 C 
ATOM     12  C2  ASD A 601      83.824  53.577  48.069  0.00  0.00    +0.000 C 
ATOM     13  C3  ASD A 601      84.171  52.485  49.057  0.00  0.00    +0.000 C 
ATOM     14  C4  ASD A 601      85.374  51.855  48.992  0.00  0.00    +0.000 C 
ATOM     15  C5  ASD A 601      86.176  51.934  47.904  0.00  0.00    +0.000 C 
ATOM     16  C6  ASD A 601      87.501  51.206  47.934  0.00  0.00    +0.000 C 
ATOM     17  C7  ASD A 601      87.613  50.321  46.692  0.00  0.00    +0.000 C 
ATOM     18  C8  ASD A 601      87.388  51.148  45.431  0.00  0.00    +0.000 C 
ATOM     19  C9  ASD A 601      85.985  51.787  45.439  0.00  0.00    +0.000 C 
ATOM     20  O1  ASD A 601      83.345  52.184  49.910  0.00  0.00    +0.000 OA
ATOM     21  O2  ASD A 601      87.328  50.118  40.707  0.00  0.00    +0.000 OA
ENDROOT
TORSDOF 0
ENDMDL
MODEL 6
REMARK VINA RESULT:    -8.220      3.238      4.773
REMARK INTER + INTRA:          -8.220
REMARK INTER:                  -8.220
REMARK INTRA:                   0.000
REMARK UNBOUND:                 0.000
REMARK  Name = /content/outputs/docking/native_ligand.pdb
REMARK  2 active torsions:
REMARK  status: ('A' for Active; 'I' for Inactive)
REMARK    1  A    between atoms: C10_2  and  C19_11
REMARK    2  A    between atoms: C13_5  and  C18_10
REMARK                            x       y       z     vdW  Elec       q    Type
REMARK                         _______ _______ _______ _____ _____    ______ ____
ROOT
ATOM      1  C1  ASD A 601      83.530  50.664  44.214  0.00  0.00    +0.000 C 
ATOM      2  C10 ASD A 601      83.998  51.728  43.205  0.00  0.00    +0.000 C 
ATOM      3  C11 ASD A 601      85.030  53.061  45.127  0.00  0.00    +0.000 C 
ATOM      4  C12 ASD A 601      85.122  54.405  45.842  0.00  0.00    +0.000 C 
ATOM      5  C13 ASD A 601      85.532  55.459  44.825  0.00  0.00    +0.000 C 
ATOM      6  C14 ASD A 601      84.434  55.542  43.764  0.00  0.00    +0.000 C 
ATOM      7  C15 ASD A 601      84.669  56.876  43.048  0.00  0.00    +0.000 C 
ATOM      8  C16 ASD A 601      84.997  57.829  44.207  0.00  0.00    +0.000 C 
ATOM      9  C17 ASD A 601      85.538  56.893  45.276  0.00  0.00    +0.000 C 
ATOM     10  C18 ASD A 601      86.923  55.162  44.260  0.00  0.00    +0.000 C 
ATOM     11  C19 ASD A 601      85.373  51.344  42.648  0.00  0.00    +0.000 C 
ATOM     12  C2  ASD A 601      82.939  49.424  43.558  0.00  0.00    +0.000 C 
ATOM     13  C3  ASD A 601      81.828  49.886  42.641  0.00  0.00    +0.000 C 
ATOM     14  C4  ASD A 601      81.999  50.979  41.851  0.00  0.00    +0.000 C 
ATOM     15  C5  ASD A 601      82.999  51.870  42.051  0.00  0.00    +0.000 C 
ATOM     16  C6  ASD A 601      83.111  53.048  41.110  0.00  0.00    +0.000 C 
ATOM     17  C7  ASD A 601      83.170  54.337  41.929  0.00  0.00    +0.000 C 
ATOM     18  C8  ASD A 601      84.291  54.259  42.960  0.00  0.00    +0.000 C 
ATOM     19  C9  ASD A 601      84.060  53.084  43.931  0.00  0.00    +0.000 C 
ATOM     20  O1  ASD A 601      80.778  49.256  42.629  0.00  0.00    +0.000 OA
ATOM     21  O2  ASD A 601      85.941  57.269  46.365  0.00  0.00    +0.000 OA
ENDROOT
TORSDOF 0
ENDMDL
MODEL 7
REMARK VINA RESULT:    -8.142      1.489      6.095
REMARK INTER + INTRA:          -8.142
REMARK INTER:                  -8.142
REMARK INTRA:                   0.000
REMARK UNBOUND:                 0.000
REMARK  Name = /content/outputs/docking/native_ligand.pdb
REMARK  2 active torsions:
REMARK  status: ('A' for Active; 'I' for Inactive)
REMARK    1  A    between atoms: C10_2  and  C19_11
REMARK    2  A    between atoms: C13_5  and  C18_10
REMARK                            x       y       z     vdW  Elec       q    Type
REMARK                         _______ _______ _______ _____ _____    ______ ____
ROOT
ATOM      1  C1  ASD A 601      85.154  56.226  43.700  0.00  0.00    +0.000 C 
ATOM      2  C10 ASD A 601      86.122  55.669  44.759  0.00  0.00    +0.000 C 
ATOM      3  C11 ASD A 601      85.747  53.317  43.829  0.00  0.00    +0.000 C 
ATOM      4  C12 ASD A 601      85.362  51.872  44.131  0.00  0.00    +0.000 C 
ATOM      5  C13 ASD A 601      86.289  51.349  45.217  0.00  0.00    +0.000 C 
ATOM      6  C14 ASD A 601      86.063  52.190  46.474  0.00  0.00    +0.000 C 
ATOM      7  C15 ASD A 601      86.664  51.367  47.619  0.00  0.00    +0.000 C 
ATOM      8  C16 ASD A 601      86.202  49.940  47.289  0.00  0.00    +0.000 C 
ATOM      9  C17 ASD A 601      85.995  49.988  45.784  0.00  0.00    +0.000 C 
ATOM     10  C18 ASD A 601      87.741  51.328  44.734  0.00  0.00    +0.000 C 
ATOM     11  C19 ASD A 601      87.557  55.721  44.226  0.00  0.00    +0.000 C 
ATOM     12  C2  ASD A 601      85.105  57.747  43.662  0.00  0.00    +0.000 C 
ATOM     13  C3  ASD A 601      84.776  58.221  45.060  0.00  0.00    +0.000 C 
ATOM     14  C4  ASD A 601      85.374  57.651  46.139  0.00  0.00    +0.000 C 
ATOM     15  C5  ASD A 601      86.030  56.469  46.063  0.00  0.00    +0.000 C 
ATOM     16  C6  ASD A 601      86.673  55.923  47.319  0.00  0.00    +0.000 C 
ATOM     17  C7  ASD A 601      86.200  54.485  47.536  0.00  0.00    +0.000 C 
ATOM     18  C8  ASD A 601      86.462  53.646  46.290  0.00  0.00    +0.000 C 
ATOM     19  C9  ASD A 601      85.706  54.221  45.075  0.00  0.00    +0.000 C 
ATOM     20  O1  ASD A 601      83.961  59.126  45.194  0.00  0.00    +0.000 OA
ATOM     21  O2  ASD A 601      85.645  49.027  45.117  0.00  0.00    +0.000 OA
ENDROOT
TORSDOF 0
ENDMDL
MODEL 8
REMARK VINA RESULT:    -8.099      3.131      5.424
REMARK INTER + INTRA:          -8.099
REMARK INTER:                  -8.099
REMARK INTRA:                   0.000
REMARK UNBOUND:                 0.000
REMARK  Name = /content/outputs/docking/native_ligand.pdb
REMARK  2 active torsions:
REMARK  status: ('A' for Active; 'I' for Inactive)
REMARK    1  A    between atoms: C10_2  and  C19_11
REMARK    2  A    between atoms: C13_5  and  C18_10
REMARK                            x       y       z     vdW  Elec       q    Type
REMARK                         _______ _______ _______ _____ _____    ______ ____
ROOT
ATOM      1  C1  ASD A 601      87.733  52.996  41.972  0.00  0.00    +0.000 C 
ATOM      2  C10 ASD A 601      87.119  51.885  42.842  0.00  0.00    +0.000 C 
ATOM      3  C11 ASD A 601      86.324  53.658  44.503  0.00  0.00    +0.000 C 
ATOM      4  C12 ASD A 601      86.303  54.130  45.953  0.00  0.00    +0.000 C 
ATOM      5  C13 ASD A 601      85.747  53.005  46.812  0.00  0.00    +0.000 C 
ATOM      6  C14 ASD A 601      86.696  51.811  46.697  0.00  0.00    +0.000 C 
ATOM      7  C15 ASD A 601      86.346  50.907  47.884  0.00  0.00    +0.000 C 
ATOM      8  C16 ASD A 601      86.156  51.912  49.031  0.00  0.00    +0.000 C 
ATOM      9  C17 ASD A 601      85.775  53.191  48.304  0.00  0.00    +0.000 C 
ATOM     10  C18 ASD A 601      84.299  52.689  46.429  0.00  0.00    +0.000 C 
ATOM     11  C19 ASD A 601      85.691  51.590  42.374  0.00  0.00    +0.000 C 
ATOM     12  C2  ASD A 601      88.255  52.498  40.630  0.00  0.00    +0.000 C 
ATOM     13  C3  ASD A 601      89.228  51.376  40.915  0.00  0.00    +0.000 C 
ATOM     14  C4  ASD A 601      88.937  50.434  41.851  0.00  0.00    +0.000 C 
ATOM     15  C5  ASD A 601      87.957  50.603  42.770  0.00  0.00    +0.000 C 
ATOM     16  C6  ASD A 601      87.703  49.490  43.762  0.00  0.00    +0.000 C 
ATOM     17  C7  ASD A 601      87.729  50.069  45.177  0.00  0.00    +0.000 C 
ATOM     18  C8  ASD A 601      86.754  51.235  45.291  0.00  0.00    +0.000 C 
ATOM     19  C9  ASD A 601      87.130  52.361  44.306  0.00  0.00    +0.000 C 
ATOM     20  O1  ASD A 601      90.278  51.338  40.286  0.00  0.00    +0.000 OA
ATOM     21  O2  ASD A 601      85.511  54.240  48.870  0.00  0.00    +0.000 OA
ENDROOT
TORSDOF 0
ENDMDL
MODEL 9
REMARK VINA RESULT:    -8.071      2.839      6.036
REMARK INTER + INTRA:          -8.071
REMARK INTER:                  -8.071
REMARK INTRA:                   0.000
REMARK UNBOUND:                 0.000
REMARK  Name = /content/outputs/docking/native_ligand.pdb
REMARK  2 active torsions:
REMARK  status: ('A' for Active; 'I' for Inactive)
REMARK    1  A    between atoms: C10_2  and  C19_11
REMARK    2  A    between atoms: C13_5  and  C18_10
REMARK                            x       y       z     vdW  Elec       q    Type
REMARK                         _______ _______ _______ _____ _____    ______ ____
ROOT
ATOM      1  C1  ASD A 601      84.961  56.927  43.554  0.00  0.00    +0.000 C 
ATOM      2  C10 ASD A 601      85.509  55.596  44.098  0.00  0.00    +0.000 C 
ATOM      3  C11 ASD A 601      84.207  54.348  42.286  0.00  0.00    +0.000 C 
ATOM      4  C12 ASD A 601      83.206  53.242  41.967  0.00  0.00    +0.000 C 
ATOM      5  C13 ASD A 601      83.729  51.942  42.557  0.00  0.00    +0.000 C 
ATOM      6  C14 ASD A 601      83.807  52.110  44.074  0.00  0.00    +0.000 C 
ATOM      7  C15 ASD A 601      83.903  50.685  44.631  0.00  0.00    +0.000 C 
ATOM      8  C16 ASD A 601      82.886  49.918  43.773  0.00  0.00    +0.000 C 
ATOM      9  C17 ASD A 601      82.828  50.739  42.495  0.00  0.00    +0.000 C 
ATOM     10  C18 ASD A 601      85.055  51.540  41.905  0.00  0.00    +0.000 C 
ATOM     11  C19 ASD A 601      86.855  55.281  43.438  0.00  0.00    +0.000 C 
ATOM     12  C2  ASD A 601      85.589  58.153  44.204  0.00  0.00    +0.000 C 
ATOM     13  C3  ASD A 601      85.403  58.014  45.699  0.00  0.00    +0.000 C 
ATOM     14  C4  ASD A 601      85.611  56.817  46.309  0.00  0.00    +0.000 C 
ATOM     15  C5  ASD A 601      85.686  55.654  45.620  0.00  0.00    +0.000 C 
ATOM     16  C6  ASD A 601      85.932  54.377  46.390  0.00  0.00    +0.000 C 
ATOM     17  C7  ASD A 601      84.862  53.352  46.014  0.00  0.00    +0.000 C 
ATOM     18  C8  ASD A 601      84.817  53.165  44.501  0.00  0.00    +0.000 C 
ATOM     19  C9  ASD A 601      84.478  54.494  43.795  0.00  0.00    +0.000 C 
ATOM     20  O1  ASD A 601      85.060  58.999  46.340  0.00  0.00    +0.000 OA
ATOM     21  O2  ASD A 601      82.140  50.445  41.530  0.00  0.00    +0.000 OA
ENDROOT
TORSDOF 0
ENDMDL
