REMARK SMILES C=C(C)/C=C/c1c(OC)cc(O)c2c1O[C@H](c1ccccc1)CC2=O
REMARK SMILES IDX 7 1 10 2 11 3 13 4 14 5 6 6 15 7 16 8 23 9 24 10 25 11 8 12
REMARK SMILES IDX 9 13 5 14 4 15 2 16 1 17 3 18 12 19 17 21 18 22 22 23 19 24
REMARK SMILES IDX 21 25 20 26
REMARK H PARENT 12 20
ROOT
ATOM      1  C   UNL     1      -2.200   2.022  -0.405  1.00  0.00     0.133 A 
ATOM      2  C   UNL     1      -1.737   3.201  -1.004  1.00  0.00     0.094 A 
ATOM      3  C   UNL     1      -0.370   3.418  -1.169  1.00  0.00     0.133 A 
ATOM      4  C   UNL     1       0.553   2.462  -0.744  1.00  0.00     0.102 A 
ATOM      5  C   UNL     1       0.107   1.275  -0.161  1.00  0.00     0.145 A 
ATOM      6  C   UNL     1      -1.272   1.040   0.015  1.00  0.00     0.060 A 
ATOM      7  O   UNL     1       0.986   0.316   0.286  1.00  0.00    -0.484 OA
ATOM      8  C   UNL     1       2.210   0.275  -0.466  1.00  0.00     0.211 C 
ATOM      9  C   UNL     1       2.918   1.617  -0.336  1.00  0.00     0.131 C 
ATOM     10  C   UNL     1       2.006   2.685  -0.870  1.00  0.00     0.174 C 
ATOM     11  O   UNL     1       2.424   3.735  -1.354  1.00  0.00    -0.294 OA
ENDROOT
BRANCH   1  12
ATOM     12  O   UNL     1      -3.526   1.747  -0.182  1.00  0.00    -0.496 OA
ATOM     13  C   UNL     1      -4.480   2.735  -0.549  1.00  0.00     0.278 C 
ENDBRANCH   1  12
BRANCH   6  14
ATOM     14  C   UNL     1      -1.692  -0.227   0.648  1.00  0.00     0.016 C 
ATOM     15  C   UNL     1      -2.497  -1.115   0.041  1.00  0.00     0.004 C 
BRANCH  15  16
ATOM     16  C   UNL     1      -2.913  -2.401   0.585  1.00  0.00    -0.058 C 
ATOM     17  C   UNL     1      -3.733  -3.193  -0.125  1.00  0.00     0.012 C 
ATOM     18  C   UNL     1      -2.415  -2.829   1.939  1.00  0.00     0.043 C 
ENDBRANCH  15  16
ENDBRANCH   6  14
BRANCH   3  19
ATOM     19  O   UNL     1      -0.005   4.603  -1.749  1.00  0.00    -0.507 OA
ATOM     20  H   UNL     1       0.979   4.644  -1.774  1.00  0.00     0.293 HD
ENDBRANCH   3  19
BRANCH   8  21
ATOM     21  C   UNL     1       2.989  -0.937   0.020  1.00  0.00    -0.007 A 
ATOM     22  C   UNL     1       2.374  -2.202  -0.058  1.00  0.00     0.007 A 
ATOM     23  C   UNL     1       4.295  -0.870   0.527  1.00  0.00     0.007 A 
ATOM     24  C   UNL     1       3.039  -3.356   0.360  1.00  0.00     0.000 A 
ATOM     25  C   UNL     1       4.961  -2.027   0.944  1.00  0.00     0.000 A 
ATOM     26  C   UNL     1       4.334  -3.268   0.860  1.00  0.00     0.000 A 
ENDBRANCH   8  21
TORSDOF 5
