REMARK SMILES COc1c(O)cc(C2CC(=O)c3c(O)cc(O)cc3O2)cc1CC=C(C)C
REMARK SMILES IDX 3 1 4 2 6 3 7 4 21 5 22 6 2 7 1 8 5 9 23 11 24 12 25 13
REMARK SMILES IDX 26 14 27 15 8 16 9 17 20 18 10 19 19 20 11 21 12 22 18 23
REMARK SMILES IDX 13 24 16 25 15 26 14 27 17 29
REMARK H PARENT 5 10 14 28 17 30
ROOT
ATOM      1  C   UNL     1      -1.949  -1.872   1.844  1.00  0.00     0.163 A 
ATOM      2  C   UNL     1      -0.649  -2.269   2.171  1.00  0.00     0.158 A 
ATOM      3  C   UNL     1       0.454  -1.565   1.708  1.00  0.00     0.057 A 
ATOM      4  C   UNL     1       0.271  -0.418   0.923  1.00  0.00    -0.003 A 
ATOM      5  C   UNL     1      -1.041   0.007   0.641  1.00  0.00     0.015 A 
ATOM      6  C   UNL     1      -2.166  -0.708   1.098  1.00  0.00     0.002 A 
ENDROOT
BRANCH   1   7
ATOM      7  O   UNL     1      -2.996  -2.614   2.332  1.00  0.00    -0.493 OA
ATOM      8  C   UNL     1      -3.343  -3.639   1.394  1.00  0.00     0.278 C 
ENDBRANCH   1   7
BRANCH   2   9
ATOM      9  O   UNL     1      -0.432  -3.354   2.974  1.00  0.00    -0.504 OA
ATOM     10  H   UNL     1      -1.309  -3.598   3.326  1.00  0.00     0.293 HD
ENDBRANCH   2   9
BRANCH   6  11
ATOM     11  C   UNL     1      -3.552  -0.181   0.801  1.00  0.00     0.067 C 
BRANCH  11  12
ATOM     12  C   UNL     1      -3.875  -0.199  -0.671  1.00  0.00    -0.023 C 
ATOM     13  C   UNL     1      -4.092   0.847  -1.493  1.00  0.00    -0.080 C 
ATOM     14  C   UNL     1      -4.030   2.296  -1.097  1.00  0.00     0.039 C 
ATOM     15  C   UNL     1      -4.424   0.621  -2.946  1.00  0.00     0.039 C 
ENDBRANCH  11  12
ENDBRANCH   6  11
BRANCH   4  16
ATOM     16  C   UNL     1       1.453   0.392   0.426  1.00  0.00     0.211 C 
ATOM     17  C   UNL     1       1.984   1.297   1.529  1.00  0.00     0.131 C 
ATOM     18  O   UNL     1       2.473  -0.509  -0.035  1.00  0.00    -0.484 OA
ATOM     19  C   UNL     1       3.137   2.081   0.973  1.00  0.00     0.174 C 
ATOM     20  C   UNL     1       3.602   0.135  -0.468  1.00  0.00     0.138 A 
ATOM     21  O   UNL     1       3.428   3.212   1.357  1.00  0.00    -0.294 OA
ATOM     22  C   UNL     1       3.976   1.409  -0.035  1.00  0.00     0.102 A 
ATOM     23  C   UNL     1       4.412  -0.559  -1.366  1.00  0.00     0.093 A 
ATOM     24  C   UNL     1       5.143   2.001  -0.532  1.00  0.00     0.133 A 
ATOM     25  C   UNL     1       5.571   0.041  -1.852  1.00  0.00     0.123 A 
ATOM     26  C   UNL     1       5.943   1.320  -1.446  1.00  0.00     0.093 A 
BRANCH  24  27
ATOM     27  O   UNL     1       5.565   3.248  -0.155  1.00  0.00    -0.507 OA
ATOM     28  H   UNL     1       4.923   3.602   0.503  1.00  0.00     0.293 HD
ENDBRANCH  24  27
BRANCH  25  29
ATOM     29  O   UNL     1       6.327  -0.668  -2.738  1.00  0.00    -0.508 OA
ATOM     30  H   UNL     1       7.106  -0.139  -2.980  1.00  0.00     0.293 HD
ENDBRANCH  25  29
ENDBRANCH   4  16
TORSDOF 7
