REMARK SMILES C=C(C)C(O)Cc1cc([C@@H]2CC(=O)c3c(O)cc(O)cc3O2)cc(CC=C(C)C)c1O
REMARK SMILES IDX 24 1 23 2 9 3 8 4 7 5 30 6 25 7 26 8 27 9 28 10 29 11 31 12
REMARK SMILES IDX 10 14 11 15 22 16 12 17 21 18 13 19 14 20 20 21 15 22 18 23
REMARK SMILES IDX 17 24 16 25 19 27 6 29 4 30 2 31 1 32 3 33 5 34
REMARK H PARENT 31 13 16 26 19 28 5 35
ROOT
ATOM      1  C   UNL     1      -1.672   0.734  -0.178  1.00  0.00    -0.002 A 
ATOM      2  C   UNL     1      -0.274   0.771  -0.330  1.00  0.00     0.015 A 
ATOM      3  C   UNL     1       0.536  -0.320   0.020  1.00  0.00    -0.006 A 
ATOM      4  C   UNL     1      -0.074  -1.466   0.545  1.00  0.00     0.015 A 
ATOM      5  C   UNL     1      -1.465  -1.528   0.723  1.00  0.00    -0.003 A 
ATOM      6  C   UNL     1      -2.250  -0.421   0.368  1.00  0.00     0.122 A 
ENDROOT
BRANCH   1   7
ATOM      7  C   UNL     1      -2.467   1.949  -0.599  1.00  0.00     0.066 C 
BRANCH   7   8
ATOM      8  C   UNL     1      -2.616   2.945   0.520  1.00  0.00    -0.023 C 
ATOM      9  C   UNL     1      -2.088   4.182   0.609  1.00  0.00    -0.080 C 
ATOM     10  C   UNL     1      -2.364   5.047   1.813  1.00  0.00     0.039 C 
ATOM     11  C   UNL     1      -1.194   4.827  -0.414  1.00  0.00     0.039 C 
ENDBRANCH   7   8
ENDBRANCH   1   7
BRANCH   6  12
ATOM     12  O   UNL     1      -3.598  -0.530   0.579  1.00  0.00    -0.507 OA
ATOM     13  H   UNL     1      -3.998   0.354   0.569  1.00  0.00     0.293 HD
ENDBRANCH   6  12
BRANCH   3  14
ATOM     14  C   UNL     1       2.046  -0.260  -0.124  1.00  0.00     0.211 C 
ATOM     15  C   UNL     1       2.663   0.490   1.049  1.00  0.00     0.131 C 
ATOM     16  O   UNL     1       2.365   0.381  -1.370  1.00  0.00    -0.484 OA
ATOM     17  C   UNL     1       4.151   0.513   0.857  1.00  0.00     0.174 C 
ATOM     18  C   UNL     1       3.713   0.522  -1.570  1.00  0.00     0.138 A 
ATOM     19  O   UNL     1       4.948   0.542   1.792  1.00  0.00    -0.294 OA
ATOM     20  C   UNL     1       4.645   0.571  -0.531  1.00  0.00     0.102 A 
ATOM     21  C   UNL     1       4.140   0.647  -2.891  1.00  0.00     0.093 A 
ATOM     22  C   UNL     1       6.007   0.711  -0.820  1.00  0.00     0.133 A 
ATOM     23  C   UNL     1       5.498   0.787  -3.165  1.00  0.00     0.123 A 
ATOM     24  C   UNL     1       6.439   0.815  -2.140  1.00  0.00     0.093 A 
BRANCH  22  25
ATOM     25  O   UNL     1       6.973   0.764   0.149  1.00  0.00    -0.507 OA
ATOM     26  H   UNL     1       6.532   0.697   1.027  1.00  0.00     0.293 HD
ENDBRANCH  22  25
BRANCH  23  27
ATOM     27  O   UNL     1       5.871   0.895  -4.472  1.00  0.00    -0.508 OA
ATOM     28  H   UNL     1       6.839   0.984  -4.516  1.00  0.00     0.293 HD
ENDBRANCH  23  27
ENDBRANCH   3  14
BRANCH   5  29
ATOM     29  C   UNL     1      -2.092  -2.791   1.284  1.00  0.00     0.075 C 
BRANCH  29  30
ATOM     30  C   UNL     1      -2.791  -3.632   0.200  1.00  0.00     0.144 C 
BRANCH  30  31
ATOM     31  C   UNL     1      -3.594  -4.777   0.800  1.00  0.00    -0.052 C 
ATOM     32  C   UNL     1      -3.211  -6.066   0.760  1.00  0.00     0.010 C 
ATOM     33  C   UNL     1      -4.906  -4.388   1.429  1.00  0.00     0.041 C 
ENDBRANCH  30  31
BRANCH  30  34
ATOM     34  O   UNL     1      -1.801  -4.163  -0.692  1.00  0.00    -0.388 OA
ATOM     35  H   UNL     1      -1.455  -3.402  -1.189  1.00  0.00     0.211 HD
ENDBRANCH  30  34
ENDBRANCH  29  30
ENDBRANCH   5  29
TORSDOF 10
