REMARK SMILES CC(C)(C#N)n1cnc(-c2ccc(C#N)cc2)n1
REMARK SMILES IDX 6 1 7 2 8 3 9 4 18 5 2 6 5 7 4 8 1 9 3 10 10 11 11 12 17 13
REMARK SMILES IDX 12 14 16 15 13 16 14 17 15 18
REMARK H PARENT
ROOT
ATOM      1  N   UNL     1      -1.760  -0.509  -0.121  1.00  0.00    -0.233 N 
ATOM      2  C   UNL     1      -1.472  -1.820   0.106  1.00  0.00     0.222 A 
ATOM      3  N   UNL     1      -0.186  -1.958   0.320  1.00  0.00    -0.215 NA
ATOM      4  C   UNL     1       0.308  -0.678   0.215  1.00  0.00     0.181 A 
ATOM      5  N   UNL     1      -0.634   0.239  -0.056  1.00  0.00    -0.149 NA
ENDROOT
BRANCH   1   6
ATOM      6  C   UNL     1      -3.053   0.131  -0.407  1.00  0.00     0.145 C 
ATOM      7  N   UNL     1      -5.012  -1.640  -0.454  1.00  0.00    -0.196 NA
ATOM      8  C   UNL     1      -4.154  -0.859  -0.434  1.00  0.00     0.092 C 
ATOM      9  C   UNL     1      -3.369   1.171   0.685  1.00  0.00     0.053 C 
ATOM     10  C   UNL     1      -2.996   0.825  -1.780  1.00  0.00     0.053 C 
ENDBRANCH   1   6
BRANCH   4  11
ATOM     11  C   UNL     1       1.725  -0.372   0.387  1.00  0.00     0.021 A 
ATOM     12  C   UNL     1       2.199   0.944   0.274  1.00  0.00     0.013 A 
ATOM     13  C   UNL     1       2.642  -1.396   0.669  1.00  0.00     0.013 A 
ATOM     14  C   UNL     1       3.559   1.230   0.439  1.00  0.00     0.020 A 
ATOM     15  C   UNL     1       4.002  -1.113   0.835  1.00  0.00     0.020 A 
ATOM     16  C   UNL     1       4.463   0.202   0.720  1.00  0.00     0.052 A 
ATOM     17  C   UNL     1       5.857   0.494   0.890  1.00  0.00     0.099 C 
ATOM     18  N   UNL     1       6.984   0.733   1.027  1.00  0.00    -0.192 NA
ENDBRANCH   4  11
TORSDOF 2
