REMARK SMILES COc1c(/C=C/C(C)(C)O)cc([C@@H]2CC(=O)c3c(O)cc(O)cc3O2)cc1CC=C(C)C
REMARK SMILES IDX 3 1 27 2 26 3 12 4 11 5 4 6 2 7 1 8 28 9 29 10 30 11 31 12
REMARK SMILES IDX 32 13 5 14 6 15 7 16 8 17 9 18 10 19 13 21 14 22 25 23 15 24
REMARK SMILES IDX 24 25 16 26 17 27 23 28 18 29 21 30 20 31 19 32 22 34
REMARK H PARENT 10 20 19 33 22 35
ROOT
ATOM      1  C   UNL     1      -2.050   0.270   0.363  1.00  0.00     0.129 A 
ATOM      2  C   UNL     1      -1.242   1.308   0.859  1.00  0.00    -0.001 A 
ATOM      3  C   UNL     1       0.153   1.120   0.908  1.00  0.00     0.015 A 
ATOM      4  C   UNL     1       0.747  -0.080   0.495  1.00  0.00    -0.006 A 
ATOM      5  C   UNL     1      -0.094  -1.111   0.035  1.00  0.00     0.019 A 
ATOM      6  C   UNL     1      -1.488  -0.963  -0.014  1.00  0.00     0.017 A 
ENDROOT
BRANCH   1   7
ATOM      7  O   UNL     1      -3.410   0.474   0.311  1.00  0.00    -0.496 OA
ATOM      8  C   UNL     1      -3.815   0.787  -1.023  1.00  0.00     0.278 C 
ENDBRANCH   1   7
BRANCH   2   9
ATOM      9  C   UNL     1      -1.820   2.623   1.336  1.00  0.00     0.066 C 
BRANCH   9  10
ATOM     10  C   UNL     1      -1.522   3.758   0.391  1.00  0.00    -0.023 C 
ATOM     11  C   UNL     1      -0.734   4.834   0.594  1.00  0.00    -0.080 C 
ATOM     12  C   UNL     1       0.054   5.113   1.843  1.00  0.00     0.039 C 
ATOM     13  C   UNL     1      -0.578   5.879  -0.480  1.00  0.00     0.039 C 
ENDBRANCH   9  10
ENDBRANCH   2   9
BRANCH   6  14
ATOM     14  C   UNL     1      -2.265  -2.121  -0.482  1.00  0.00     0.010 C 
ATOM     15  C   UNL     1      -3.319  -2.621   0.185  1.00  0.00     0.008 C 
BRANCH  15  16
ATOM     16  C   UNL     1      -4.157  -3.805  -0.232  1.00  0.00     0.077 C 
ATOM     17  C   UNL     1      -4.086  -4.900   0.834  1.00  0.00     0.046 C 
ATOM     18  C   UNL     1      -5.604  -3.363  -0.461  1.00  0.00     0.046 C 
BRANCH  16  19
ATOM     19  O   UNL     1      -3.658  -4.343  -1.457  1.00  0.00    -0.386 OA
ATOM     20  H   UNL     1      -4.217  -5.101  -1.694  1.00  0.00     0.211 HD
ENDBRANCH  16  19
ENDBRANCH  15  16
ENDBRANCH   6  14
BRANCH   4  21
ATOM     21  C   UNL     1       2.246  -0.329   0.519  1.00  0.00     0.211 C 
ATOM     22  C   UNL     1       3.080   0.723   1.241  1.00  0.00     0.131 C 
ATOM     23  O   UNL     1       2.673  -0.437  -0.852  1.00  0.00    -0.484 OA
ATOM     24  C   UNL     1       4.517   0.289   1.198  1.00  0.00     0.174 C 
ATOM     25  C   UNL     1       4.001  -0.749  -0.976  1.00  0.00     0.138 A 
ATOM     26  O   UNL     1       5.329   0.567   2.077  1.00  0.00    -0.294 OA
ATOM     27  C   UNL     1       4.955  -0.445  -0.003  1.00  0.00     0.102 A 
ATOM     28  C   UNL     1       4.391  -1.377  -2.158  1.00  0.00     0.093 A 
ATOM     29  C   UNL     1       6.294  -0.801  -0.200  1.00  0.00     0.133 A 
ATOM     30  C   UNL     1       5.726  -1.726  -2.343  1.00  0.00     0.123 A 
ATOM     31  C   UNL     1       6.684  -1.448  -1.370  1.00  0.00     0.093 A 
BRANCH  29  32
ATOM     32  O   UNL     1       7.278  -0.535   0.714  1.00  0.00    -0.507 OA
ATOM     33  H   UNL     1       6.870  -0.061   1.474  1.00  0.00     0.293 HD
ENDBRANCH  29  32
BRANCH  30  34
ATOM     34  O   UNL     1       6.062  -2.349  -3.508  1.00  0.00    -0.508 OA
ATOM     35  H   UNL     1       7.018  -2.525  -3.506  1.00  0.00     0.293 HD
ENDBRANCH  30  34
ENDBRANCH   4  21
TORSDOF 9
