REMARK SMILES O=c1cc(-c2ccccc2)oc2cc(O)cc(O)c12
REMARK SMILES IDX 14 1 16 2 17 3 19 4 12 5 13 6 11 7 4 8 3 9 2 10 1 11 15 12
REMARK SMILES IDX 18 14 5 16 6 17 10 18 7 19 9 20 8 21
REMARK H PARENT 15 13 18 15
ROOT
ATOM      1  C   UNL     1      -3.737   0.690  -1.043  1.00  0.00     0.123 A 
ATOM      2  C   UNL     1      -4.218  -0.179  -0.067  1.00  0.00     0.093 A 
ATOM      3  C   UNL     1      -3.311  -0.851   0.749  1.00  0.00     0.134 A 
ATOM      4  C   UNL     1      -1.935  -0.652   0.587  1.00  0.00     0.107 A 
ATOM      5  C   UNL     1      -1.467   0.220  -0.393  1.00  0.00     0.146 A 
ATOM      6  C   UNL     1      -2.370   0.896  -1.213  1.00  0.00     0.094 A 
ATOM      7  O   UNL     1      -0.132   0.460  -0.601  1.00  0.00    -0.456 OA
ATOM      8  C   UNL     1       0.792  -0.203   0.192  1.00  0.00     0.138 C 
ATOM      9  C   UNL     1       0.467  -1.059   1.173  1.00  0.00     0.100 C 
ATOM     10  C   UNL     1      -0.952  -1.342   1.430  1.00  0.00     0.197 C 
ATOM     11  O   UNL     1      -1.305  -2.121   2.309  1.00  0.00    -0.289 OA
ENDROOT
BRANCH   1  12
ATOM     12  O   UNL     1      -4.586   1.370  -1.866  1.00  0.00    -0.508 OA
ATOM     13  H   UNL     1      -5.501   1.131  -1.640  1.00  0.00     0.293 HD
ENDBRANCH   1  12
BRANCH   3  14
ATOM     14  O   UNL     1      -3.836  -1.693   1.692  1.00  0.00    -0.507 OA
ATOM     15  H   UNL     1      -3.091  -2.095   2.193  1.00  0.00     0.293 HD
ENDBRANCH   3  14
BRANCH   8  16
ATOM     16  C   UNL     1       2.197   0.131  -0.109  1.00  0.00     0.017 A 
ATOM     17  C   UNL     1       3.192  -0.858  -0.166  1.00  0.00     0.012 A 
ATOM     18  C   UNL     1       2.560   1.460  -0.372  1.00  0.00     0.012 A 
ATOM     19  C   UNL     1       4.516  -0.523  -0.463  1.00  0.00     0.001 A 
ATOM     20  C   UNL     1       3.884   1.795  -0.668  1.00  0.00     0.001 A 
ATOM     21  C   UNL     1       4.862   0.804  -0.711  1.00  0.00     0.000 A 
ENDBRANCH   8  16
TORSDOF 3
