REMARK SMILES Cc1c(O)c(C=O)c2c(c1O)C(=O)C[C@@H](c1ccccc1)O2
REMARK SMILES IDX 5 1 8 2 22 3 15 4 14 5 12 6 13 7 9 8 10 9 2 10 3 11 1 12
REMARK SMILES IDX 6 13 7 14 4 15 16 17 17 18 21 19 18 20 20 21 19 22 11 23
REMARK H PARENT 4 16 11 24
ROOT
ATOM      1  C   UNL     1      -1.751  -1.037   0.870  1.00  0.00     0.099 A 
ATOM      2  C   UNL     1      -0.832  -0.099   0.382  1.00  0.00     0.149 A 
ATOM      3  O   UNL     1       0.510  -0.350   0.495  1.00  0.00    -0.483 OA
ATOM      4  C   UNL     1       1.300   0.238  -0.553  1.00  0.00     0.211 C 
ATOM      5  C   UNL     1       1.147   1.751  -0.481  1.00  0.00     0.131 C 
ATOM      6  C   UNL     1      -0.307   2.100  -0.609  1.00  0.00     0.174 C 
ATOM      7  O   UNL     1      -0.690   3.185  -1.044  1.00  0.00    -0.294 OA
ATOM      8  C   UNL     1      -1.299   1.110  -0.139  1.00  0.00     0.103 A 
ATOM      9  C   UNL     1      -2.676   1.383  -0.182  1.00  0.00     0.136 A 
ATOM     10  C   UNL     1      -3.613   0.459   0.309  1.00  0.00     0.034 A 
ATOM     11  C   UNL     1      -3.130  -0.755   0.832  1.00  0.00     0.136 A 
ATOM     12  C   UNL     1      -5.087   0.763   0.265  1.00  0.00     0.052 C 
ENDROOT
BRANCH   1  13
ATOM     13  C   UNL     1      -1.314  -2.353   1.402  1.00  0.00     0.267 C 
ATOM     14  O   UNL     1      -0.228  -2.860   1.150  1.00  0.00    -0.298 OA
ENDBRANCH   1  13
BRANCH  11  15
ATOM     15  O   UNL     1      -3.993  -1.709   1.310  1.00  0.00    -0.507 OA
ATOM     16  H   UNL     1      -4.916  -1.438   1.174  1.00  0.00     0.293 HD
ENDBRANCH  11  15
BRANCH   4  17
ATOM     17  C   UNL     1       2.727  -0.277  -0.410  1.00  0.00    -0.007 A 
ATOM     18  C   UNL     1       3.860   0.543  -0.539  1.00  0.00     0.007 A 
ATOM     19  C   UNL     1       2.934  -1.651  -0.188  1.00  0.00     0.007 A 
ATOM     20  C   UNL     1       5.149   0.011  -0.430  1.00  0.00     0.000 A 
ATOM     21  C   UNL     1       4.221  -2.182  -0.078  1.00  0.00     0.000 A 
ATOM     22  C   UNL     1       5.329  -1.350  -0.199  1.00  0.00     0.000 A 
ENDBRANCH   4  17
BRANCH   9  23
ATOM     23  O   UNL     1      -3.156   2.564  -0.692  1.00  0.00    -0.507 OA
ATOM     24  H   UNL     1      -2.395   3.128  -0.962  1.00  0.00     0.293 HD
ENDBRANCH   9  23
TORSDOF 4
