REMARK SMILES CC(C)(C#N)n1cnc(-c2ccc(Cl)cc2Cl)n1
REMARK SMILES IDX 6 1 7 2 8 3 9 4 18 5 2 6 5 7 4 8 1 9 3 10 10 11 11 12 16 13
REMARK SMILES IDX 12 14 15 15 13 16 17 17 14 18
REMARK H PARENT
ROOT
ATOM      1  N   UNL     1      -1.477  -0.580   0.324  1.00  0.00    -0.233 N 
ATOM      2  C   UNL     1      -1.089  -1.867   0.112  1.00  0.00     0.222 A 
ATOM      3  N   UNL     1       0.202  -1.904  -0.124  1.00  0.00    -0.215 NA
ATOM      4  C   UNL     1       0.597  -0.589  -0.021  1.00  0.00     0.182 A 
ATOM      5  N   UNL     1      -0.419   0.253   0.215  1.00  0.00    -0.149 NA
ENDROOT
BRANCH   1   6
ATOM      6  C   UNL     1      -2.804  -0.042   0.655  1.00  0.00     0.145 C 
ATOM      7  N   UNL     1      -4.647  -1.933   0.587  1.00  0.00    -0.196 NA
ATOM      8  C   UNL     1      -3.840  -1.097   0.617  1.00  0.00     0.092 C 
ATOM      9  C   UNL     1      -2.774   0.559   2.072  1.00  0.00     0.053 C 
ATOM     10  C   UNL     1      -3.198   1.050  -0.359  1.00  0.00     0.053 C 
ENDBRANCH   1   6
BRANCH   4  11
ATOM     11  C   UNL     1       1.981  -0.187  -0.237  1.00  0.00     0.040 A 
ATOM     12  C   UNL     1       2.728  -0.897  -1.197  1.00  0.00     0.015 A 
ATOM     13  C   UNL     1       2.609   0.861   0.458  1.00  0.00     0.053 A 
ATOM     14  C   UNL     1       4.056  -0.561  -1.472  1.00  0.00     0.021 A 
ATOM     15  C   UNL     1       3.941   1.198   0.180  1.00  0.00     0.041 A 
ATOM     16  C   UNL     1       4.655   0.489  -0.784  1.00  0.00     0.042 A 
ATOM     17  Cl  UNL     1       1.840   1.765   1.721  1.00  0.00    -0.083 Cl
ATOM     18  Cl  UNL     1       6.289   0.908  -1.118  1.00  0.00    -0.084 Cl
ENDBRANCH   4  11
TORSDOF 2
