REMARK SMILES CC(C)=CCC/C(C)=C/Cc1c(O)cc2oc(-c3ccc(O)cc3)c(O)c(=O)c2c1O
REMARK SMILES IDX 8 1 7 2 9 3 6 4 5 5 4 6 2 7 1 8 3 9 10 10 11 11 12 12 30 13
REMARK SMILES IDX 14 14 29 15 15 16 27 17 16 18 28 19 25 20 17 21 13 22 31 24
REMARK SMILES IDX 26 26 18 28 19 29 24 30 20 31 23 32 21 33 22 34
REMARK H PARENT 13 23 31 25 26 27 22 35
ROOT
ATOM      1  C   UNL     1       3.573  -1.723   0.316  1.00  0.00     0.039 C 
ATOM      2  C   UNL     1       3.189  -0.268   0.310  1.00  0.00    -0.077 C 
ATOM      3  C   UNL     1       2.142   0.257   0.981  1.00  0.00    -0.023 C 
ENDROOT
BRANCH   2   4
ATOM      4  C   UNL     1       4.040   0.624  -0.578  1.00  0.00     0.034 C 
BRANCH   4   5
ATOM      5  C   UNL     1       5.165   1.369   0.154  1.00  0.00     0.032 C 
BRANCH   5   6
ATOM      6  C   UNL     1       6.265   0.473   0.656  1.00  0.00    -0.028 C 
ATOM      7  C   UNL     1       7.446   0.210   0.065  1.00  0.00    -0.080 C 
ATOM      8  C   UNL     1       7.878   0.745  -1.273  1.00  0.00     0.039 C 
ATOM      9  C   UNL     1       8.453  -0.693   0.728  1.00  0.00     0.039 C 
ENDBRANCH   5   6
ENDBRANCH   4   5
ENDBRANCH   2   4
BRANCH   3  10
ATOM     10  C   UNL     1       1.171  -0.435   1.903  1.00  0.00     0.070 C 
BRANCH  10  11
ATOM     11  C   UNL     1      -0.231  -0.481   1.333  1.00  0.00     0.040 A 
ATOM     12  C   UNL     1      -0.691  -1.608   0.632  1.00  0.00     0.126 A 
ATOM     13  C   UNL     1      -1.099   0.618   1.459  1.00  0.00     0.137 A 
ATOM     14  C   UNL     1      -1.971  -1.650   0.077  1.00  0.00     0.094 A 
ATOM     15  C   UNL     1      -2.385   0.578   0.903  1.00  0.00     0.111 A 
ATOM     16  C   UNL     1      -2.816  -0.551   0.216  1.00  0.00     0.146 A 
ATOM     17  C   UNL     1      -3.313   1.706   1.018  1.00  0.00     0.238 C 
ATOM     18  O   UNL     1      -4.060  -0.654  -0.353  1.00  0.00    -0.452 OA
ATOM     19  O   UNL     1      -3.008   2.744   1.601  1.00  0.00    -0.285 OA
ATOM     20  C   UNL     1      -4.652   1.560   0.403  1.00  0.00     0.208 C 
ATOM     21  C   UNL     1      -4.946   0.410  -0.231  1.00  0.00     0.180 C 
BRANCH  12  22
ATOM     22  O   UNL     1       0.136  -2.689   0.497  1.00  0.00    -0.507 OA
ATOM     23  H   UNL     1      -0.292  -3.359  -0.060  1.00  0.00     0.293 HD
ENDBRANCH  12  22
BRANCH  13  24
ATOM     24  O   UNL     1      -0.645   1.722   2.138  1.00  0.00    -0.507 OA
ATOM     25  H   UNL     1      -1.350   2.406   2.144  1.00  0.00     0.293 HD
ENDBRANCH  13  24
BRANCH  20  26
ATOM     26  O   UNL     1      -5.514   2.636   0.508  1.00  0.00    -0.502 OA
ATOM     27  H   UNL     1      -5.009   3.326   0.988  1.00  0.00     0.293 HD
ENDBRANCH  20  26
BRANCH  21  28
ATOM     28  C   UNL     1      -6.244   0.156  -0.893  1.00  0.00     0.021 A 
ATOM     29  C   UNL     1      -6.272  -0.396  -2.183  1.00  0.00     0.016 A 
ATOM     30  C   UNL     1      -7.464   0.416  -0.249  1.00  0.00     0.016 A 
ATOM     31  C   UNL     1      -7.486  -0.668  -2.818  1.00  0.00     0.047 A 
ATOM     32  C   UNL     1      -8.681   0.146  -0.883  1.00  0.00     0.047 A 
ATOM     33  C   UNL     1      -8.680  -0.393  -2.164  1.00  0.00     0.115 A 
BRANCH  33  34
ATOM     34  O   UNL     1      -9.842  -0.672  -2.819  1.00  0.00    -0.508 OA
ATOM     35  H   UNL     1     -10.587  -0.411  -2.253  1.00  0.00     0.293 HD
ENDBRANCH  33  34
ENDBRANCH  21  28
ENDBRANCH  10  11
ENDBRANCH   3  10
TORSDOF 10
