REMARK SMILES COc1cc(C[C@H]2COC(=O)[C@@H]2Cc2ccc(O)c(OC)c2)ccc1O
REMARK SMILES IDX 12 1 10 2 11 3 9 4 8 5 7 6 13 7 14 8 19 9 22 10 17 11 16 12
REMARK SMILES IDX 15 13 20 14 21 15 18 16 6 18 5 19 23 20 4 21 24 22 3 23
REMARK SMILES IDX 25 24 2 25 1 26 26 27
REMARK H PARENT 18 17 26 28
ROOT
ATOM      1  C   UNL     1      -0.425  -0.601  -1.673  1.00  0.00     0.110 C 
ATOM      2  C   UNL     1      -0.698  -2.011  -2.156  1.00  0.00     0.309 C 
ATOM      3  O   UNL     1      -1.761  -2.607  -2.121  1.00  0.00    -0.252 OA
ATOM      4  O   UNL     1       0.455  -2.560  -2.652  1.00  0.00    -0.465 OA
ATOM      5  C   UNL     1       1.509  -1.602  -2.551  1.00  0.00     0.237 C 
ATOM      6  C   UNL     1       0.797  -0.267  -2.529  1.00  0.00     0.046 C 
ENDROOT
BRANCH   1   7
ATOM      7  C   UNL     1      -1.597   0.350  -1.912  1.00  0.00     0.051 C 
BRANCH   7   8
ATOM      8  C   UNL     1      -2.671   0.241  -0.852  1.00  0.00    -0.043 A 
ATOM      9  C   UNL     1      -3.441   0.654   1.428  1.00  0.00     0.160 A 
ATOM     10  C   UNL     1      -2.459   0.761   0.438  1.00  0.00     0.054 A 
ATOM     11  C   UNL     1      -4.654   0.032   1.110  1.00  0.00     0.157 A 
ATOM     12  C   UNL     1      -4.880  -0.491  -0.163  1.00  0.00     0.050 A 
ATOM     13  C   UNL     1      -3.888  -0.388  -1.139  1.00  0.00     0.008 A 
BRANCH   9  14
ATOM     14  O   UNL     1      -3.317   1.130   2.708  1.00  0.00    -0.493 OA
ATOM     15  C   UNL     1      -2.018   1.519   3.133  1.00  0.00     0.278 C 
ENDBRANCH   9  14
BRANCH  11  16
ATOM     16  O   UNL     1      -5.627  -0.073   2.069  1.00  0.00    -0.504 OA
ATOM     17  H   UNL     1      -6.376  -0.565   1.702  1.00  0.00     0.293 HD
ENDBRANCH  11  16
ENDBRANCH   7   8
ENDBRANCH   1   7
BRANCH   6  18
ATOM     18  C   UNL     1       1.666   0.929  -2.125  1.00  0.00     0.043 C 
BRANCH  18  19
ATOM     19  C   UNL     1       2.008   1.062  -0.661  1.00  0.00    -0.044 A 
ATOM     20  C   UNL     1       1.288   1.960   0.143  1.00  0.00     0.008 A 
ATOM     21  C   UNL     1       3.053   0.315  -0.087  1.00  0.00     0.054 A 
ATOM     22  C   UNL     1       1.583   2.093   1.498  1.00  0.00     0.050 A 
ATOM     23  C   UNL     1       3.348   0.437   1.272  1.00  0.00     0.160 A 
ATOM     24  C   UNL     1       2.600   1.328   2.048  1.00  0.00     0.157 A 
BRANCH  23  25
ATOM     25  O   UNL     1       4.327  -0.240   1.953  1.00  0.00    -0.493 OA
ATOM     26  C   UNL     1       5.088  -1.185   1.210  1.00  0.00     0.278 C 
ENDBRANCH  23  25
BRANCH  24  27
ATOM     27  O   UNL     1       2.863   1.470   3.383  1.00  0.00    -0.504 OA
ATOM     28  H   UNL     1       3.605   0.860   3.562  1.00  0.00     0.293 HD
ENDBRANCH  24  27
ENDBRANCH  18  19
ENDBRANCH   6  18
TORSDOF 8
