REMARK SMILES COc1c(O)cc([C@@H]2CC(=O)c3c(O)cc(O)cc3O2)cc1CC=C(C)C
REMARK SMILES IDX 3 1 4 2 6 3 7 4 21 5 22 6 2 7 1 8 5 9 23 11 24 12 25 13
REMARK SMILES IDX 26 14 27 15 8 16 9 17 20 18 10 19 19 20 11 21 12 22 18 23
REMARK SMILES IDX 13 24 16 25 15 26 14 27 17 29
REMARK H PARENT 5 10 14 28 17 30
ROOT
ATOM      1  C   UNL     1      -1.979  -1.431   2.482  1.00  0.00     0.163 A 
ATOM      2  C   UNL     1      -0.818  -1.440   3.261  1.00  0.00     0.158 A 
ATOM      3  C   UNL     1       0.343  -0.812   2.829  1.00  0.00     0.057 A 
ATOM      4  C   UNL     1       0.352  -0.131   1.605  1.00  0.00    -0.003 A 
ATOM      5  C   UNL     1      -0.835  -0.082   0.848  1.00  0.00     0.015 A 
ATOM      6  C   UNL     1      -2.014  -0.724   1.275  1.00  0.00     0.002 A 
ENDROOT
BRANCH   1   7
ATOM      7  O   UNL     1      -3.091  -2.071   2.969  1.00  0.00    -0.493 OA
ATOM      8  C   UNL     1      -3.107  -3.430   2.518  1.00  0.00     0.278 C 
ENDBRANCH   1   7
BRANCH   2   9
ATOM      9  O   UNL     1      -0.802  -2.053   4.482  1.00  0.00    -0.504 OA
ATOM     10  H   UNL     1      -1.734  -2.271   4.677  1.00  0.00     0.293 HD
ENDBRANCH   2   9
BRANCH   6  11
ATOM     11  C   UNL     1      -3.269  -0.601   0.441  1.00  0.00     0.067 C 
BRANCH  11  12
ATOM     12  C   UNL     1      -3.147  -1.285  -0.896  1.00  0.00    -0.023 C 
ATOM     13  C   UNL     1      -3.123  -0.727  -2.123  1.00  0.00    -0.080 C 
ATOM     14  C   UNL     1      -3.186   0.748  -2.411  1.00  0.00     0.039 C 
ATOM     15  C   UNL     1      -3.016  -1.590  -3.354  1.00  0.00     0.039 C 
ENDBRANCH  11  12
ENDBRANCH   6  11
BRANCH   4  16
ATOM     16  C   UNL     1       1.610   0.580   1.144  1.00  0.00     0.211 C 
ATOM     17  C   UNL     1       1.532   2.067   1.461  1.00  0.00     0.131 C 
ATOM     18  O   UNL     1       1.769   0.363  -0.269  1.00  0.00    -0.484 OA
ATOM     19  C   UNL     1       2.803   2.713   0.989  1.00  0.00     0.174 C 
ATOM     20  C   UNL     1       2.861   1.005  -0.790  1.00  0.00     0.138 A 
ATOM     21  O   UNL     1       3.289   3.706   1.525  1.00  0.00    -0.294 OA
ATOM     22  C   UNL     1       3.433   2.143  -0.216  1.00  0.00     0.102 A 
ATOM     23  C   UNL     1       3.383   0.479  -1.973  1.00  0.00     0.093 A 
ATOM     24  C   UNL     1       4.552   2.736  -0.809  1.00  0.00     0.133 A 
ATOM     25  C   UNL     1       4.498   1.080  -2.552  1.00  0.00     0.123 A 
ATOM     26  C   UNL     1       5.089   2.201  -1.976  1.00  0.00     0.093 A 
BRANCH  24  27
ATOM     27  O   UNL     1       5.164   3.850  -0.299  1.00  0.00    -0.507 OA
ATOM     28  H   UNL     1       4.674   4.128   0.508  1.00  0.00     0.293 HD
ENDBRANCH  24  27
BRANCH  25  29
ATOM     29  O   UNL     1       5.048   0.593  -3.701  1.00  0.00    -0.508 OA
ATOM     30  H   UNL     1       4.540  -0.182  -3.994  1.00  0.00     0.293 HD
ENDBRANCH  25  29
ENDBRANCH   4  16
TORSDOF 7
