MODEL 1
REMARK VINA RESULT:    -7.534      0.000      0.000
REMARK INTER + INTRA:          -8.903
REMARK INTER:                  -8.657
REMARK INTRA:                  -0.246
REMARK UNBOUND:                -0.269
REMARK SMILES CC1(C)CC[C@]2(C(=O)O)CC[C@]3(C)C(=CC[C@@H]4[C@@]5(C)C[C@@H](O)[C@H](O)C(C)(C)[C@@H]5CC[C@]43C)[C@@H]2C1
REMARK SMILES IDX 21 1 20 2 18 3 19 4 28 5 25 6 23 7 26 8 27 9 29 10 30 11
REMARK SMILES IDX 31 12 17 13 16 14 15 15 14 16 12 17 13 18 11 19 10 20 6 21
REMARK SMILES IDX 33 22 34 23 2 24 1 25 3 26 4 27 5 28 32 29 22 30 24 32 7 34
REMARK SMILES IDX 8 35 9 36
REMARK H PARENT 22 31 24 33 9 37
ROOT
ATOM      1  C   UNL     1      85.339  44.626  42.361  1.00  0.00     0.144 C 
ATOM      2  C   UNL     1      84.996  46.114  42.365  1.00  0.00     0.042 C 
ATOM      3  C   UNL     1      85.946  46.984  43.241  1.00  0.00    -0.023 C 
ATOM      4  C   UNL     1      85.651  46.642  44.724  1.00  0.00     0.012 C 
ATOM      5  C   UNL     1      87.428  46.664  42.817  1.00  0.00     0.004 C 
ATOM      6  C   UNL     1      87.839  45.143  42.795  1.00  0.00    -0.003 C 
ATOM      7  C   UNL     1      86.792  44.366  41.942  1.00  0.00     0.149 C 
ATOM      8  C   UNL     1      89.219  44.991  42.094  1.00  0.00     0.014 C 
ATOM      9  C   UNL     1      88.003  44.518  44.193  1.00  0.00     0.014 C 
ATOM     10  C   UNL     1      88.414  47.598  43.550  1.00  0.00     0.005 C 
ATOM     11  C   UNL     1      88.167  49.057  43.159  1.00  0.00     0.008 C 
ATOM     12  C   UNL     1      86.727  49.574  43.432  1.00  0.00    -0.020 C 
ATOM     13  C   UNL     1      85.678  48.522  42.900  1.00  0.00     0.006 C 
ATOM     14  C   UNL     1      84.235  48.996  43.174  1.00  0.00     0.032 C 
ATOM     15  C   UNL     1      84.019  50.465  42.977  1.00  0.00    -0.027 C 
ATOM     16  C   UNL     1      84.974  51.390  42.752  1.00  0.00    -0.063 C 
ATOM     17  C   UNL     1      86.461  51.004  42.679  1.00  0.00    -0.006 C 
ATOM     18  C   UNL     1      86.838  50.930  41.170  1.00  0.00     0.017 C 
ATOM     19  C   UNL     1      87.329  52.126  43.319  1.00  0.00     0.013 C 
ATOM     20  C   UNL     1      86.984  53.537  42.844  1.00  0.00     0.020 C 
ATOM     21  C   UNL     1      85.520  53.919  43.162  1.00  0.00     0.074 C 
ATOM     22  C   UNL     1      84.535  52.852  42.592  1.00  0.00     0.033 C 
ATOM     23  C   UNL     1      84.143  53.193  41.138  1.00  0.00     0.015 C 
ATOM     24  C   UNL     1      83.347  54.524  41.050  1.00  0.00    -0.035 C 
ATOM     25  C   UNL     1      83.588  55.153  39.663  1.00  0.00     0.011 C 
ATOM     26  C   UNL     1      81.837  54.247  41.188  1.00  0.00     0.011 C 
ATOM     27  C   UNL     1      83.778  55.512  42.162  1.00  0.00     0.007 C 
ATOM     28  C   UNL     1      85.242  55.327  42.559  1.00  0.00     0.020 C 
ATOM     29  C   UNL     1      86.589  49.761  44.973  1.00  0.00     0.012 C 
ENDROOT
BRANCH   1  30
ATOM     30  O   UNL     1      84.472  43.964  41.430  1.00  0.00    -0.390 OA
ATOM     31  H   UNL     1      84.452  44.553  40.650  1.00  0.00     0.211 HD
ENDBRANCH   1  30
BRANCH   7  32
ATOM     32  O   UNL     1      86.994  42.946  41.999  1.00  0.00    -0.390 OA
ATOM     33  H   UNL     1      86.502  42.609  42.766  1.00  0.00     0.211 HD
ENDBRANCH   7  32
BRANCH  21  34
ATOM     34  C   UNL     1      85.297  54.045  44.676  1.00  0.00     0.310 C 
ATOM     35  O   UNL     1      84.551  53.374  45.371  1.00  0.00    -0.252 OA
BRANCH  34  36
ATOM     36  O   UNL     1      85.963  55.073  45.243  1.00  0.00    -0.481 OA
ATOM     37  H   UNL     1      85.389  55.846  45.061  1.00  0.00     0.296 HD
ENDBRANCH  34  36
ENDBRANCH  21  34
TORSDOF 4
ENDMDL
MODEL 2
REMARK VINA RESULT:    -6.530      2.437      8.802
REMARK INTER + INTRA:          -7.752
REMARK INTER:                  -7.568
REMARK INTRA:                  -0.185
REMARK UNBOUND:                -0.269
REMARK SMILES CC1(C)CC[C@]2(C(=O)O)CC[C@]3(C)C(=CC[C@@H]4[C@@]5(C)C[C@@H](O)[C@H](O)C(C)(C)[C@@H]5CC[C@]43C)[C@@H]2C1
REMARK SMILES IDX 21 1 20 2 18 3 19 4 28 5 25 6 23 7 26 8 27 9 29 10 30 11
REMARK SMILES IDX 31 12 17 13 16 14 15 15 14 16 12 17 13 18 11 19 10 20 6 21
REMARK SMILES IDX 33 22 34 23 2 24 1 25 3 26 4 27 5 28 32 29 22 30 24 32 7 34
REMARK SMILES IDX 8 35 9 36
REMARK H PARENT 22 31 24 33 9 37
ROOT
ATOM      1  C   UNL     1      86.213  56.296  47.250  1.00  0.00     0.144 C 
ATOM      2  C   UNL     1      86.744  54.987  46.672  1.00  0.00     0.042 C 
ATOM      3  C   UNL     1      85.697  54.187  45.840  1.00  0.00    -0.023 C 
ATOM      4  C   UNL     1      84.645  53.630  46.833  1.00  0.00     0.012 C 
ATOM      5  C   UNL     1      85.079  55.163  44.770  1.00  0.00     0.004 C 
ATOM      6  C   UNL     1      84.515  56.532  45.310  1.00  0.00    -0.003 C 
ATOM      7  C   UNL     1      85.622  57.211  46.170  1.00  0.00     0.149 C 
ATOM      8  C   UNL     1      84.210  57.474  44.111  1.00  0.00     0.014 C 
ATOM      9  C   UNL     1      83.195  56.400  46.093  1.00  0.00     0.014 C 
ATOM     10  C   UNL     1      84.136  54.396  43.819  1.00  0.00     0.005 C 
ATOM     11  C   UNL     1      84.910  53.337  43.031  1.00  0.00     0.008 C 
ATOM     12  C   UNL     1      85.664  52.292  43.901  1.00  0.00    -0.020 C 
ATOM     13  C   UNL     1      86.462  53.033  45.043  1.00  0.00     0.006 C 
ATOM     14  C   UNL     1      87.207  52.022  45.939  1.00  0.00     0.032 C 
ATOM     15  C   UNL     1      87.814  50.870  45.199  1.00  0.00    -0.027 C 
ATOM     16  C   UNL     1      87.630  50.571  43.897  1.00  0.00    -0.063 C 
ATOM     17  C   UNL     1      86.723  51.428  42.998  1.00  0.00    -0.006 C 
ATOM     18  C   UNL     1      87.654  52.359  42.168  1.00  0.00     0.017 C 
ATOM     19  C   UNL     1      85.963  50.515  41.993  1.00  0.00     0.013 C 
ATOM     20  C   UNL     1      86.849  49.501  41.269  1.00  0.00     0.020 C 
ATOM     21  C   UNL     1      87.552  48.535  42.250  1.00  0.00     0.074 C 
ATOM     22  C   UNL     1      88.339  49.329  43.338  1.00  0.00     0.033 C 
ATOM     23  C   UNL     1      89.774  49.637  42.858  1.00  0.00     0.015 C 
ATOM     24  C   UNL     1      90.609  48.341  42.662  1.00  0.00    -0.035 C 
ATOM     25  C   UNL     1      91.682  48.604  41.587  1.00  0.00     0.011 C 
ATOM     26  C   UNL     1      91.332  47.975  43.972  1.00  0.00     0.011 C 
ATOM     27  C   UNL     1      89.711  47.153  42.237  1.00  0.00     0.007 C 
ATOM     28  C   UNL     1      88.498  47.610  41.428  1.00  0.00     0.020 C 
ATOM     29  C   UNL     1      84.591  51.337  44.506  1.00  0.00     0.012 C 
ENDROOT
BRANCH   1  30
ATOM     30  O   UNL     1      87.300  56.984  47.884  1.00  0.00    -0.390 OA
ATOM     31  H   UNL     1      87.650  57.582  47.194  1.00  0.00     0.211 HD
ENDBRANCH   1  30
BRANCH   7  32
ATOM     32  O   UNL     1      85.143  58.389  46.838  1.00  0.00    -0.390 OA
ATOM     33  H   UNL     1      85.764  58.592  47.557  1.00  0.00     0.211 HD
ENDBRANCH   7  32
BRANCH  21  34
ATOM     34  C   UNL     1      86.537  47.613  42.941  1.00  0.00     0.310 C 
ATOM     35  O   UNL     1      86.068  47.740  44.060  1.00  0.00    -0.252 OA
BRANCH  34  36
ATOM     36  O   UNL     1      86.218  46.516  42.223  1.00  0.00    -0.481 OA
ATOM     37  H   UNL     1      85.673  46.872  41.491  1.00  0.00     0.296 HD
ENDBRANCH  34  36
ENDBRANCH  21  34
TORSDOF 4
ENDMDL
MODEL 3
REMARK VINA RESULT:    -6.224      2.827      4.679
REMARK INTER + INTRA:          -7.402
REMARK INTER:                  -7.231
REMARK INTRA:                  -0.171
REMARK UNBOUND:                -0.269
REMARK SMILES CC1(C)CC[C@]2(C(=O)O)CC[C@]3(C)C(=CC[C@@H]4[C@@]5(C)C[C@@H](O)[C@H](O)C(C)(C)[C@@H]5CC[C@]43C)[C@@H]2C1
REMARK SMILES IDX 21 1 20 2 18 3 19 4 28 5 25 6 23 7 26 8 27 9 29 10 30 11
REMARK SMILES IDX 31 12 17 13 16 14 15 15 14 16 12 17 13 18 11 19 10 20 6 21
REMARK SMILES IDX 33 22 34 23 2 24 1 25 3 26 4 27 5 28 32 29 22 30 24 32 7 34
REMARK SMILES IDX 8 35 9 36
REMARK H PARENT 22 31 24 33 9 37
ROOT
ATOM      1  C   UNL     1      91.566  48.948  42.947  1.00  0.00     0.144 C 
ATOM      2  C   UNL     1      90.629  50.153  42.963  1.00  0.00     0.042 C 
ATOM      3  C   UNL     1      89.328  49.960  42.127  1.00  0.00    -0.023 C 
ATOM      4  C   UNL     1      89.735  49.962  40.632  1.00  0.00     0.012 C 
ATOM      5  C   UNL     1      88.655  48.611  42.582  1.00  0.00     0.004 C 
ATOM      6  C   UNL     1      89.576  47.332  42.585  1.00  0.00    -0.003 C 
ATOM      7  C   UNL     1      90.864  47.660  43.396  1.00  0.00     0.149 C 
ATOM      8  C   UNL     1      88.845  46.171  43.317  1.00  0.00     0.014 C 
ATOM      9  C   UNL     1      89.915  46.801  41.179  1.00  0.00     0.014 C 
ATOM     10  C   UNL     1      87.286  48.430  41.892  1.00  0.00     0.005 C 
ATOM     11  C   UNL     1      86.323  49.546  42.305  1.00  0.00     0.008 C 
ATOM     12  C   UNL     1      86.822  50.987  42.006  1.00  0.00    -0.020 C 
ATOM     13  C   UNL     1      88.316  51.140  42.491  1.00  0.00     0.006 C 
ATOM     14  C   UNL     1      88.849  52.557  42.191  1.00  0.00     0.032 C 
ATOM     15  C   UNL     1      87.852  53.653  42.410  1.00  0.00    -0.027 C 
ATOM     16  C   UNL     1      86.540  53.498  42.677  1.00  0.00    -0.063 C 
ATOM     17  C   UNL     1      85.903  52.101  42.779  1.00  0.00    -0.006 C 
ATOM     18  C   UNL     1      85.769  51.773  44.296  1.00  0.00     0.017 C 
ATOM     19  C   UNL     1      84.467  52.132  42.182  1.00  0.00     0.013 C 
ATOM     20  C   UNL     1      83.605  53.294  42.675  1.00  0.00     0.020 C 
ATOM     21  C   UNL     1      84.222  54.667  42.329  1.00  0.00     0.074 C 
ATOM     22  C   UNL     1      85.688  54.762  42.854  1.00  0.00     0.033 C 
ATOM     23  C   UNL     1      85.715  55.291  44.304  1.00  0.00     0.015 C 
ATOM     24  C   UNL     1      85.188  56.750  44.398  1.00  0.00    -0.035 C 
ATOM     25  C   UNL     1      84.591  56.970  45.802  1.00  0.00     0.011 C 
ATOM     26  C   UNL     1      86.351  57.745  44.218  1.00  0.00     0.011 C 
ATOM     27  C   UNL     1      84.117  57.032  43.316  1.00  0.00     0.007 C 
ATOM     28  C   UNL     1      83.324  55.776  42.952  1.00  0.00     0.020 C 
ATOM     29  C   UNL     1      86.717  51.201  40.465  1.00  0.00     0.012 C 
ENDROOT
BRANCH   1  30
ATOM     30  O   UNL     1      92.655  49.210  43.843  1.00  0.00    -0.390 OA
ATOM     31  H   UNL     1      93.319  48.524  43.631  1.00  0.00     0.211 HD
ENDBRANCH   1  30
BRANCH   7  32
ATOM     32  O   UNL     1      91.837  46.606  43.318  1.00  0.00    -0.390 OA
ATOM     33  H   UNL     1      91.485  45.844  43.807  1.00  0.00     0.211 HD
ENDBRANCH   7  32
BRANCH  21  34
ATOM     34  C   UNL     1      84.218  54.909  40.812  1.00  0.00     0.310 C 
ATOM     35  O   UNL     1      85.011  55.581  40.171  1.00  0.00    -0.252 OA
BRANCH  34  36
ATOM     36  O   UNL     1      83.163  54.364  40.174  1.00  0.00    -0.481 OA
ATOM     37  H   UNL     1      82.599  55.136  39.961  1.00  0.00     0.296 HD
ENDBRANCH  34  36
ENDBRANCH  21  34
TORSDOF 4
ENDMDL
MODEL 4
REMARK VINA RESULT:    -5.222      2.551      8.578
REMARK INTER + INTRA:          -6.254
REMARK INTER:                  -6.245
REMARK INTRA:                  -0.009
REMARK UNBOUND:                -0.269
REMARK SMILES CC1(C)CC[C@]2(C(=O)O)CC[C@]3(C)C(=CC[C@@H]4[C@@]5(C)C[C@@H](O)[C@H](O)C(C)(C)[C@@H]5CC[C@]43C)[C@@H]2C1
REMARK SMILES IDX 21 1 20 2 18 3 19 4 28 5 25 6 23 7 26 8 27 9 29 10 30 11
REMARK SMILES IDX 31 12 17 13 16 14 15 15 14 16 12 17 13 18 11 19 10 20 6 21
REMARK SMILES IDX 33 22 34 23 2 24 1 25 3 26 4 27 5 28 32 29 22 30 24 32 7 34
REMARK SMILES IDX 8 35 9 36
REMARK H PARENT 22 31 24 33 9 37
ROOT
ATOM      1  C   UNL     1      83.114  56.369  45.780  1.00  0.00     0.144 C 
ATOM      2  C   UNL     1      83.431  54.975  45.243  1.00  0.00     0.042 C 
ATOM      3  C   UNL     1      84.876  54.822  44.681  1.00  0.00    -0.023 C 
ATOM      4  C   UNL     1      84.949  55.635  43.365  1.00  0.00     0.012 C 
ATOM      5  C   UNL     1      85.881  55.334  45.780  1.00  0.00     0.004 C 
ATOM      6  C   UNL     1      85.603  56.768  46.372  1.00  0.00    -0.003 C 
ATOM      7  C   UNL     1      84.120  56.822  46.846  1.00  0.00     0.149 C 
ATOM      8  C   UNL     1      86.502  56.995  47.620  1.00  0.00     0.014 C 
ATOM      9  C   UNL     1      85.927  57.920  45.401  1.00  0.00     0.014 C 
ATOM     10  C   UNL     1      87.339  55.079  45.342  1.00  0.00     0.005 C 
ATOM     11  C   UNL     1      87.601  53.578  45.195  1.00  0.00     0.008 C 
ATOM     12  C   UNL     1      86.666  52.844  44.194  1.00  0.00    -0.020 C 
ATOM     13  C   UNL     1      85.169  53.267  44.461  1.00  0.00     0.006 C 
ATOM     14  C   UNL     1      84.214  52.570  43.470  1.00  0.00     0.032 C 
ATOM     15  C   UNL     1      84.569  51.147  43.166  1.00  0.00    -0.027 C 
ATOM     16  C   UNL     1      85.695  50.506  43.541  1.00  0.00    -0.063 C 
ATOM     17  C   UNL     1      86.787  51.219  44.357  1.00  0.00    -0.006 C 
ATOM     18  C   UNL     1      86.605  50.781  45.840  1.00  0.00     0.017 C 
ATOM     19  C   UNL     1      88.191  50.729  43.898  1.00  0.00     0.013 C 
ATOM     20  C   UNL     1      88.324  49.210  43.791  1.00  0.00     0.020 C 
ATOM     21  C   UNL     1      87.327  48.606  42.776  1.00  0.00     0.074 C 
ATOM     22  C   UNL     1      85.868  49.044  43.110  1.00  0.00     0.033 C 
ATOM     23  C   UNL     1      85.215  48.057  44.101  1.00  0.00     0.015 C 
ATOM     24  C   UNL     1      85.050  46.640  43.484  1.00  0.00    -0.035 C 
ATOM     25  C   UNL     1      85.077  45.600  44.621  1.00  0.00     0.011 C 
ATOM     26  C   UNL     1      83.687  46.528  42.774  1.00  0.00     0.011 C 
ATOM     27  C   UNL     1      86.173  46.338  42.461  1.00  0.00     0.007 C 
ATOM     28  C   UNL     1      87.477  47.056  42.811  1.00  0.00     0.020 C 
ATOM     29  C   UNL     1      87.109  53.260  42.758  1.00  0.00     0.012 C 
ENDROOT
BRANCH   1  30
ATOM     30  O   UNL     1      81.808  56.339  46.371  1.00  0.00    -0.390 OA
ATOM     31  H   UNL     1      81.376  55.556  45.976  1.00  0.00     0.211 HD
ENDBRANCH   1  30
BRANCH   7  32
ATOM     32  O   UNL     1      83.729  58.143  47.252  1.00  0.00    -0.390 OA
ATOM     33  H   UNL     1      83.328  58.581  46.482  1.00  0.00     0.211 HD
ENDBRANCH   7  32
BRANCH  21  34
ATOM     34  C   UNL     1      87.665  49.041  41.343  1.00  0.00     0.310 C 
ATOM     35  O   UNL     1      87.372  50.097  40.805  1.00  0.00    -0.252 OA
BRANCH  34  36
ATOM     36  O   UNL     1      88.285  48.091  40.614  1.00  0.00    -0.481 OA
ATOM     37  H   UNL     1      87.696  47.973  39.841  1.00  0.00     0.296 HD
ENDBRANCH  34  36
ENDBRANCH  21  34
TORSDOF 4
ENDMDL
MODEL 5
REMARK VINA RESULT:    -5.199      1.734      2.599
REMARK INTER + INTRA:          -6.227
REMARK INTER:                  -6.065
REMARK INTRA:                  -0.162
REMARK UNBOUND:                -0.269
REMARK SMILES CC1(C)CC[C@]2(C(=O)O)CC[C@]3(C)C(=CC[C@@H]4[C@@]5(C)C[C@@H](O)[C@H](O)C(C)(C)[C@@H]5CC[C@]43C)[C@@H]2C1
REMARK SMILES IDX 21 1 20 2 18 3 19 4 28 5 25 6 23 7 26 8 27 9 29 10 30 11
REMARK SMILES IDX 31 12 17 13 16 14 15 15 14 16 12 17 13 18 11 19 10 20 6 21
REMARK SMILES IDX 33 22 34 23 2 24 1 25 3 26 4 27 5 28 32 29 22 30 24 32 7 34
REMARK SMILES IDX 8 35 9 36
REMARK H PARENT 22 31 24 33 9 37
ROOT
ATOM      1  C   UNL     1      88.077  46.526  42.372  1.00  0.00     0.144 C 
ATOM      2  C   UNL     1      87.108  47.705  42.429  1.00  0.00     0.042 C 
ATOM      3  C   UNL     1      87.720  49.004  43.035  1.00  0.00    -0.023 C 
ATOM      4  C   UNL     1      87.924  48.755  44.551  1.00  0.00     0.012 C 
ATOM      5  C   UNL     1      89.064  49.309  42.273  1.00  0.00     0.004 C 
ATOM      6  C   UNL     1      90.103  48.127  42.182  1.00  0.00    -0.003 C 
ATOM      7  C   UNL     1      89.369  46.873  41.621  1.00  0.00     0.149 C 
ATOM      8  C   UNL     1      91.225  48.503  41.173  1.00  0.00     0.014 C 
ATOM      9  C   UNL     1      90.816  47.815  43.512  1.00  0.00     0.014 C 
ATOM     10  C   UNL     1      89.650  50.661  42.729  1.00  0.00     0.005 C 
ATOM     11  C   UNL     1      88.696  51.807  42.381  1.00  0.00     0.008 C 
ATOM     12  C   UNL     1      87.268  51.677  42.982  1.00  0.00    -0.020 C 
ATOM     13  C   UNL     1      86.723  50.216  42.739  1.00  0.00     0.006 C 
ATOM     14  C   UNL     1      85.313  50.047  43.342  1.00  0.00     0.032 C 
ATOM     15  C   UNL     1      84.422  51.240  43.175  1.00  0.00    -0.027 C 
ATOM     16  C   UNL     1      84.787  52.451  42.709  1.00  0.00    -0.063 C 
ATOM     17  C   UNL     1      86.237  52.743  42.288  1.00  0.00    -0.006 C 
ATOM     18  C   UNL     1      86.286  52.652  40.734  1.00  0.00     0.017 C 
ATOM     19  C   UNL     1      86.616  54.201  42.679  1.00  0.00     0.013 C 
ATOM     20  C   UNL     1      85.581  55.251  42.275  1.00  0.00     0.020 C 
ATOM     21  C   UNL     1      84.204  54.995  42.927  1.00  0.00     0.074 C 
ATOM     22  C   UNL     1      83.713  53.545  42.631  1.00  0.00     0.033 C 
ATOM     23  C   UNL     1      82.919  53.497  41.308  1.00  0.00     0.015 C 
ATOM     24  C   UNL     1      81.608  54.327  41.388  1.00  0.00    -0.035 C 
ATOM     25  C   UNL     1      81.248  54.819  39.973  1.00  0.00     0.011 C 
ATOM     26  C   UNL     1      80.452  53.442  41.890  1.00  0.00     0.011 C 
ATOM     27  C   UNL     1      81.766  55.535  42.346  1.00  0.00     0.007 C 
ATOM     28  C   UNL     1      83.203  56.056  42.381  1.00  0.00     0.020 C 
ATOM     29  C   UNL     1      87.382  51.977  44.508  1.00  0.00     0.012 C 
ENDROOT
BRANCH   1  30
ATOM     30  O   UNL     1      87.431  45.443  41.690  1.00  0.00    -0.390 OA
ATOM     31  H   UNL     1      87.171  45.816  40.824  1.00  0.00     0.211 HD
ENDBRANCH   1  30
BRANCH   7  32
ATOM     32  O   UNL     1      90.197  45.700  41.654  1.00  0.00    -0.390 OA
ATOM     33  H   UNL     1      89.691  44.971  41.258  1.00  0.00     0.211 HD
ENDBRANCH   7  32
BRANCH  21  34
ATOM     34  C   UNL     1      84.266  55.201  44.448  1.00  0.00     0.310 C 
ATOM     35  O   UNL     1      84.424  54.343  45.302  1.00  0.00    -0.252 OA
BRANCH  34  36
ATOM     36  O   UNL     1      84.040  56.473  44.837  1.00  0.00    -0.481 OA
ATOM     37  H   UNL     1      84.628  56.998  44.257  1.00  0.00     0.296 HD
ENDBRANCH  34  36
ENDBRANCH  21  34
TORSDOF 4
ENDMDL
MODEL 6
REMARK VINA RESULT:    -4.927      1.806      8.578
REMARK INTER + INTRA:          -5.916
REMARK INTER:                  -6.399
REMARK INTRA:                   0.483
REMARK UNBOUND:                -0.269
REMARK SMILES CC1(C)CC[C@]2(C(=O)O)CC[C@]3(C)C(=CC[C@@H]4[C@@]5(C)C[C@@H](O)[C@H](O)C(C)(C)[C@@H]5CC[C@]43C)[C@@H]2C1
REMARK SMILES IDX 21 1 20 2 18 3 19 4 28 5 25 6 23 7 26 8 27 9 29 10 30 11
REMARK SMILES IDX 31 12 17 13 16 14 15 15 14 16 12 17 13 18 11 19 10 20 6 21
REMARK SMILES IDX 33 22 34 23 2 24 1 25 3 26 4 27 5 28 32 29 22 30 24 32 7 34
REMARK SMILES IDX 8 35 9 36
REMARK H PARENT 22 31 24 33 9 37
ROOT
ATOM      1  C   UNL     1      86.700  55.982  44.433  1.00  0.00     0.144 C 
ATOM      2  C   UNL     1      87.111  54.517  44.308  1.00  0.00     0.042 C 
ATOM      3  C   UNL     1      85.912  53.523  44.241  1.00  0.00    -0.023 C 
ATOM      4  C   UNL     1      85.256  53.495  45.645  1.00  0.00     0.012 C 
ATOM      5  C   UNL     1      84.933  54.018  43.111  1.00  0.00     0.004 C 
ATOM      6  C   UNL     1      84.476  55.524  43.189  1.00  0.00    -0.003 C 
ATOM      7  C   UNL     1      85.747  56.415  43.311  1.00  0.00     0.149 C 
ATOM      8  C   UNL     1      83.756  55.914  41.868  1.00  0.00     0.014 C 
ATOM      9  C   UNL     1      83.472  55.816  44.321  1.00  0.00     0.014 C 
ATOM     10  C   UNL     1      83.794  52.999  42.897  1.00  0.00     0.005 C 
ATOM     11  C   UNL     1      84.355  51.659  42.415  1.00  0.00     0.008 C 
ATOM     12  C   UNL     1      85.406  51.009  43.358  1.00  0.00    -0.020 C 
ATOM     13  C   UNL     1      86.467  52.094  43.792  1.00  0.00     0.006 C 
ATOM     14  C   UNL     1      87.516  51.486  44.747  1.00  0.00     0.032 C 
ATOM     15  C   UNL     1      87.939  50.092  44.396  1.00  0.00    -0.027 C 
ATOM     16  C   UNL     1      87.383  49.302  43.455  1.00  0.00    -0.063 C 
ATOM     17  C   UNL     1      86.189  49.780  42.611  1.00  0.00    -0.006 C 
ATOM     18  C   UNL     1      86.757  50.224  41.231  1.00  0.00     0.017 C 
ATOM     19  C   UNL     1      85.217  48.593  42.353  1.00  0.00     0.013 C 
ATOM     20  C   UNL     1      85.901  47.312  41.873  1.00  0.00     0.020 C 
ATOM     21  C   UNL     1      86.933  46.783  42.895  1.00  0.00     0.074 C 
ATOM     22  C   UNL     1      87.963  47.894  43.265  1.00  0.00     0.033 C 
ATOM     23  C   UNL     1      89.158  47.878  42.287  1.00  0.00     0.015 C 
ATOM     24  C   UNL     1      89.974  46.560  42.391  1.00  0.00    -0.035 C 
ATOM     25  C   UNL     1      90.644  46.285  41.030  1.00  0.00     0.011 C 
ATOM     26  C   UNL     1      91.088  46.710  43.445  1.00  0.00     0.011 C 
ATOM     27  C   UNL     1      89.068  45.367  42.786  1.00  0.00     0.007 C 
ATOM     28  C   UNL     1      87.637  45.540  42.276  1.00  0.00     0.020 C 
ATOM     29  C   UNL     1      84.636  50.462  44.598  1.00  0.00     0.012 C 
ENDROOT
BRANCH   1  30
ATOM     30  O   UNL     1      87.883  56.790  44.363  1.00  0.00    -0.390 OA
ATOM     31  H   UNL     1      87.928  57.080  43.430  1.00  0.00     0.211 HD
ENDBRANCH   1  30
BRANCH   7  32
ATOM     32  O   UNL     1      85.422  57.794  43.551  1.00  0.00    -0.390 OA
ATOM     33  H   UNL     1      86.175  58.330  43.252  1.00  0.00     0.211 HD
ENDBRANCH   7  32
BRANCH  21  34
ATOM     34  C   UNL     1      86.242  46.296  44.177  1.00  0.00     0.310 C 
ATOM     35  O   UNL     1      86.069  45.139  44.528  1.00  0.00    -0.252 OA
BRANCH  34  36
ATOM     36  O   UNL     1      85.720  47.288  44.928  1.00  0.00    -0.481 OA
ATOM     37  H   UNL     1      86.441  47.950  44.965  1.00  0.00     0.296 HD
ENDBRANCH  34  36
ENDBRANCH  21  34
TORSDOF 4
ENDMDL
MODEL 7
REMARK VINA RESULT:    -4.816      3.168      4.869
REMARK INTER + INTRA:          -5.788
REMARK INTER:                  -6.147
REMARK INTRA:                   0.359
REMARK UNBOUND:                -0.269
REMARK SMILES CC1(C)CC[C@]2(C(=O)O)CC[C@]3(C)C(=CC[C@@H]4[C@@]5(C)C[C@@H](O)[C@H](O)C(C)(C)[C@@H]5CC[C@]43C)[C@@H]2C1
REMARK SMILES IDX 21 1 20 2 18 3 19 4 28 5 25 6 23 7 26 8 27 9 29 10 30 11
REMARK SMILES IDX 31 12 17 13 16 14 15 15 14 16 12 17 13 18 11 19 10 20 6 21
REMARK SMILES IDX 33 22 34 23 2 24 1 25 3 26 4 27 5 28 32 29 22 30 24 32 7 34
REMARK SMILES IDX 8 35 9 36
REMARK H PARENT 22 31 24 33 9 37
ROOT
ATOM      1  C   UNL     1      89.032  50.019  40.707  1.00  0.00     0.144 C 
ATOM      2  C   UNL     1      88.238  51.074  41.475  1.00  0.00     0.042 C 
ATOM      3  C   UNL     1      87.696  50.585  42.852  1.00  0.00    -0.023 C 
ATOM      4  C   UNL     1      86.569  49.560  42.568  1.00  0.00     0.012 C 
ATOM      5  C   UNL     1      88.902  49.970  43.657  1.00  0.00     0.004 C 
ATOM      6  C   UNL     1      89.758  48.876  42.913  1.00  0.00    -0.003 C 
ATOM      7  C   UNL     1      90.193  49.451  41.533  1.00  0.00     0.149 C 
ATOM      8  C   UNL     1      91.050  48.588  43.729  1.00  0.00     0.014 C 
ATOM      9  C   UNL     1      89.043  47.519  42.758  1.00  0.00     0.014 C 
ATOM     10  C   UNL     1      88.461  49.594  45.088  1.00  0.00     0.005 C 
ATOM     11  C   UNL     1      88.026  50.841  45.862  1.00  0.00     0.008 C 
ATOM     12  C   UNL     1      86.875  51.653  45.205  1.00  0.00    -0.020 C 
ATOM     13  C   UNL     1      87.181  51.856  43.670  1.00  0.00     0.006 C 
ATOM     14  C   UNL     1      86.046  52.643  42.982  1.00  0.00     0.032 C 
ATOM     15  C   UNL     1      85.475  53.756  43.807  1.00  0.00    -0.027 C 
ATOM     16  C   UNL     1      85.746  54.009  45.104  1.00  0.00    -0.063 C 
ATOM     17  C   UNL     1      86.716  53.124  45.906  1.00  0.00    -0.006 C 
ATOM     18  C   UNL     1      88.078  53.878  45.962  1.00  0.00     0.017 C 
ATOM     19  C   UNL     1      86.207  52.978  47.370  1.00  0.00     0.013 C 
ATOM     20  C   UNL     1      85.805  54.296  48.031  1.00  0.00     0.020 C 
ATOM     21  C   UNL     1      84.665  55.008  47.270  1.00  0.00     0.074 C 
ATOM     22  C   UNL     1      85.039  55.198  45.767  1.00  0.00     0.033 C 
ATOM     23  C   UNL     1      85.797  56.526  45.557  1.00  0.00     0.015 C 
ATOM     24  C   UNL     1      84.907  57.758  45.880  1.00  0.00    -0.035 C 
ATOM     25  C   UNL     1      85.817  58.919  46.331  1.00  0.00     0.011 C 
ATOM     26  C   UNL     1      84.153  58.212  44.616  1.00  0.00     0.011 C 
ATOM     27  C   UNL     1      83.876  57.432  46.988  1.00  0.00     0.007 C 
ATOM     28  C   UNL     1      84.396  56.376  47.964  1.00  0.00     0.020 C 
ATOM     29  C   UNL     1      85.563  50.835  45.403  1.00  0.00     0.012 C 
ENDROOT
BRANCH   1  30
ATOM     30  O   UNL     1      89.570  50.630  39.526  1.00  0.00    -0.390 OA
ATOM     31  H   UNL     1      89.307  51.570  39.593  1.00  0.00     0.211 HD
ENDBRANCH   1  30
BRANCH   7  32
ATOM     32  O   UNL     1      90.842  48.465  40.715  1.00  0.00    -0.390 OA
ATOM     33  H   UNL     1      91.445  48.932  40.113  1.00  0.00     0.211 HD
ENDBRANCH   7  32
BRANCH  21  34
ATOM     34  C   UNL     1      83.355  54.211  47.362  1.00  0.00     0.310 C 
ATOM     35  O   UNL     1      83.201  53.019  47.149  1.00  0.00    -0.252 OA
BRANCH  34  36
ATOM     36  O   UNL     1      82.273  54.968  47.637  1.00  0.00    -0.481 OA
ATOM     37  H   UNL     1      82.430  55.788  47.125  1.00  0.00     0.296 HD
ENDBRANCH  34  36
ENDBRANCH  21  34
TORSDOF 4
ENDMDL
