MODEL 1
REMARK VINA RESULT:    -8.650      0.000      0.000
REMARK INTER + INTRA:         -11.907
REMARK INTER:                 -10.785
REMARK INTRA:                  -1.122
REMARK UNBOUND:                -0.981
REMARK SMILES COc1cc(O)c(CC=C(C)C)c2c1C(=O)C[C@@H](c1ccccc1)O2
REMARK SMILES IDX 3 1 4 2 5 3 7 4 13 5 14 6 15 7 16 8 17 9 18 10 25 11 2 12
REMARK SMILES IDX 1 13 6 14 8 16 9 17 10 18 11 19 12 20 19 21 20 22 24 23
REMARK SMILES IDX 21 24 23 25 22 26
REMARK H PARENT 6 15
ROOT
ATOM      1  C   UNL     1      87.818  44.460  42.869  1.00  0.00     0.137 A 
ATOM      2  C   UNL     1      88.948  45.119  42.381  1.00  0.00     0.093 A 
ATOM      3  C   UNL     1      88.892  46.486  42.117  1.00  0.00     0.126 A 
ATOM      4  C   UNL     1      87.725  47.224  42.349  1.00  0.00     0.041 A 
ATOM      5  C   UNL     1      86.593  46.547  42.846  1.00  0.00     0.142 A 
ATOM      6  C   UNL     1      86.639  45.170  43.124  1.00  0.00     0.102 A 
ATOM      7  C   UNL     1      85.426  44.533  43.703  1.00  0.00     0.174 C 
ATOM      8  O   UNL     1      85.330  43.324  43.882  1.00  0.00    -0.294 OA
ATOM      9  C   UNL     1      84.308  45.458  44.092  1.00  0.00     0.131 C 
ATOM     10  C   UNL     1      84.252  46.563  43.056  1.00  0.00     0.211 C 
ATOM     11  O   UNL     1      85.473  47.311  43.074  1.00  0.00    -0.484 OA
ENDROOT
BRANCH   1  12
ATOM     12  O   UNL     1      87.961  43.132  43.170  1.00  0.00    -0.496 OA
ATOM     13  C   UNL     1      88.810  42.965  44.308  1.00  0.00     0.278 C 
ENDBRANCH   1  12
BRANCH   3  14
ATOM     14  O   UNL     1      89.996  47.125  41.623  1.00  0.00    -0.507 OA
ATOM     15  H   UNL     1      90.026  48.032  41.971  1.00  0.00     0.293 HD
ENDBRANCH   3  14
BRANCH   4  16
ATOM     16  C   UNL     1      87.665  48.705  42.027  1.00  0.00     0.070 C 
BRANCH  16  17
ATOM     17  C   UNL     1      87.986  49.558  43.227  1.00  0.00    -0.023 C 
ATOM     18  C   UNL     1      87.323  50.634  43.695  1.00  0.00    -0.080 C 
ATOM     19  C   UNL     1      87.807  51.355  44.926  1.00  0.00     0.039 C 
ATOM     20  C   UNL     1      86.086  51.231  43.081  1.00  0.00     0.039 C 
ENDBRANCH  16  17
ENDBRANCH   4  16
BRANCH  10  21
ATOM     21  C   UNL     1      83.100  47.510  43.335  1.00  0.00    -0.007 A 
ATOM     22  C   UNL     1      81.796  47.008  43.468  1.00  0.00     0.007 A 
ATOM     23  C   UNL     1      83.309  48.890  43.492  1.00  0.00     0.007 A 
ATOM     24  C   UNL     1      80.728  47.866  43.739  1.00  0.00     0.000 A 
ATOM     25  C   UNL     1      82.240  49.745  43.763  1.00  0.00     0.000 A 
ATOM     26  C   UNL     1      80.951  49.234  43.886  1.00  0.00     0.000 A 
ENDBRANCH  10  21
TORSDOF 5
ENDMDL
MODEL 2
REMARK VINA RESULT:    -8.621      2.038      5.879
REMARK INTER + INTRA:         -11.870
REMARK INTER:                 -10.801
REMARK INTRA:                  -1.068
REMARK UNBOUND:                -0.981
REMARK SMILES COc1cc(O)c(CC=C(C)C)c2c1C(=O)C[C@@H](c1ccccc1)O2
REMARK SMILES IDX 3 1 4 2 5 3 7 4 13 5 14 6 15 7 16 8 17 9 18 10 25 11 2 12
REMARK SMILES IDX 1 13 6 14 8 16 9 17 10 18 11 19 12 20 19 21 20 22 24 23
REMARK SMILES IDX 21 24 23 25 22 26
REMARK H PARENT 6 15
ROOT
ATOM      1  C   UNL     1      83.078  49.583  43.709  1.00  0.00     0.137 A 
ATOM      2  C   UNL     1      83.643  50.785  44.143  1.00  0.00     0.093 A 
ATOM      3  C   UNL     1      85.007  50.850  44.415  1.00  0.00     0.126 A 
ATOM      4  C   UNL     1      85.837  49.734  44.243  1.00  0.00     0.041 A 
ATOM      5  C   UNL     1      85.255  48.530  43.800  1.00  0.00     0.142 A 
ATOM      6  C   UNL     1      83.881  48.453  43.515  1.00  0.00     0.102 A 
ATOM      7  C   UNL     1      83.346  47.166  42.994  1.00  0.00     0.174 C 
ATOM      8  O   UNL     1      82.150  46.967  42.815  1.00  0.00    -0.294 OA
ATOM      9  C   UNL     1      84.359  46.108  42.664  1.00  0.00     0.131 C 
ATOM     10  C   UNL     1      85.457  46.190  43.706  1.00  0.00     0.211 C 
ATOM     11  O   UNL     1      86.107  47.465  43.630  1.00  0.00    -0.484 OA
ENDROOT
BRANCH   1  12
ATOM     12  O   UNL     1      81.746  49.606  43.396  1.00  0.00    -0.496 OA
ATOM     13  C   UNL     1      81.483  50.587  42.390  1.00  0.00     0.278 C 
ENDBRANCH   1  12
BRANCH   3  14
ATOM     14  O   UNL     1      85.553  52.024  44.856  1.00  0.00    -0.507 OA
ATOM     15  H   UNL     1      85.192  52.762  44.338  1.00  0.00     0.293 HD
ENDBRANCH   3  14
BRANCH   4  16
ATOM     16  C   UNL     1      87.315  49.808  44.574  1.00  0.00     0.070 C 
BRANCH  16  17
ATOM     17  C   UNL     1      88.112  50.444  43.464  1.00  0.00    -0.023 C 
ATOM     18  C   UNL     1      89.076  49.895  42.700  1.00  0.00    -0.080 C 
ATOM     19  C   UNL     1      89.756  50.704  41.627  1.00  0.00     0.039 C 
ATOM     20  C   UNL     1      89.579  48.482  42.813  1.00  0.00     0.039 C 
ENDBRANCH  16  17
ENDBRANCH   4  16
BRANCH  10  21
ATOM     21  C   UNL     1      86.495  45.104  43.487  1.00  0.00    -0.007 A 
ATOM     22  C   UNL     1      87.660  45.385  42.757  1.00  0.00     0.007 A 
ATOM     23  C   UNL     1      86.332  43.818  44.026  1.00  0.00     0.007 A 
ATOM     24  C   UNL     1      88.630  44.400  42.561  1.00  0.00     0.000 A 
ATOM     25  C   UNL     1      87.302  42.835  43.827  1.00  0.00     0.000 A 
ATOM     26  C   UNL     1      88.450  43.126  43.095  1.00  0.00     0.000 A 
ENDBRANCH  10  21
TORSDOF 5
ENDMDL
MODEL 3
REMARK VINA RESULT:    -8.609      3.067      7.810
REMARK INTER + INTRA:         -11.855
REMARK INTER:                 -11.014
REMARK INTRA:                  -0.841
REMARK UNBOUND:                -0.981
REMARK SMILES COc1cc(O)c(CC=C(C)C)c2c1C(=O)C[C@@H](c1ccccc1)O2
REMARK SMILES IDX 3 1 4 2 5 3 7 4 13 5 14 6 15 7 16 8 17 9 18 10 25 11 2 12
REMARK SMILES IDX 1 13 6 14 8 16 9 17 10 18 11 19 12 20 19 21 20 22 24 23
REMARK SMILES IDX 21 24 23 25 22 26
REMARK H PARENT 6 15
ROOT
ATOM      1  C   UNL     1      85.556  52.862  40.863  1.00  0.00     0.137 A 
ATOM      2  C   UNL     1      84.345  52.858  41.558  1.00  0.00     0.093 A 
ATOM      3  C   UNL     1      84.134  51.929  42.574  1.00  0.00     0.126 A 
ATOM      4  C   UNL     1      85.123  51.003  42.930  1.00  0.00     0.041 A 
ATOM      5  C   UNL     1      86.342  51.022  42.223  1.00  0.00     0.142 A 
ATOM      6  C   UNL     1      86.571  51.959  41.202  1.00  0.00     0.102 A 
ATOM      7  C   UNL     1      87.903  51.960  40.538  1.00  0.00     0.174 C 
ATOM      8  O   UNL     1      88.163  52.665  39.570  1.00  0.00    -0.294 OA
ATOM      9  C   UNL     1      88.946  51.059  41.136  1.00  0.00     0.131 C 
ATOM     10  C   UNL     1      88.245  49.795  41.593  1.00  0.00     0.211 C 
ATOM     11  O   UNL     1      87.291  50.107  42.614  1.00  0.00    -0.484 OA
ENDROOT
BRANCH   1  12
ATOM     12  O   UNL     1      85.724  53.844  39.923  1.00  0.00    -0.496 OA
ATOM     13  C   UNL     1      84.500  54.552  39.714  1.00  0.00     0.278 C 
ENDBRANCH   1  12
BRANCH   3  14
ATOM     14  O   UNL     1      82.941  51.917  43.242  1.00  0.00    -0.507 OA
ATOM     15  H   UNL     1      82.704  52.824  43.497  1.00  0.00     0.293 HD
ENDBRANCH   3  14
BRANCH   4  16
ATOM     16  C   UNL     1      84.870  49.974  44.015  1.00  0.00     0.070 C 
BRANCH  16  17
ATOM     17  C   UNL     1      84.413  48.655  43.449  1.00  0.00    -0.023 C 
ATOM     18  C   UNL     1      83.161  48.160  43.375  1.00  0.00    -0.080 C 
ATOM     19  C   UNL     1      82.908  46.809  42.760  1.00  0.00     0.039 C 
ATOM     20  C   UNL     1      81.920  48.850  43.874  1.00  0.00     0.039 C 
ENDBRANCH  16  17
ENDBRANCH   4  16
BRANCH  10  21
ATOM     21  C   UNL     1      89.241  48.794  42.150  1.00  0.00    -0.007 A 
ATOM     22  C   UNL     1      89.182  47.450  41.751  1.00  0.00     0.007 A 
ATOM     23  C   UNL     1      90.250  49.187  43.044  1.00  0.00     0.007 A 
ATOM     24  C   UNL     1      90.100  46.521  42.244  1.00  0.00     0.000 A 
ATOM     25  C   UNL     1      91.166  48.257  43.536  1.00  0.00     0.000 A 
ATOM     26  C   UNL     1      91.091  46.925  43.136  1.00  0.00     0.000 A 
ENDBRANCH  10  21
TORSDOF 5
ENDMDL
MODEL 4
REMARK VINA RESULT:    -8.588      3.863      7.860
REMARK INTER + INTRA:         -11.828
REMARK INTER:                 -10.813
REMARK INTRA:                  -1.015
REMARK UNBOUND:                -0.981
REMARK SMILES COc1cc(O)c(CC=C(C)C)c2c1C(=O)C[C@@H](c1ccccc1)O2
REMARK SMILES IDX 3 1 4 2 5 3 7 4 13 5 14 6 15 7 16 8 17 9 18 10 25 11 2 12
REMARK SMILES IDX 1 13 6 14 8 16 9 17 10 18 11 19 12 20 19 21 20 22 24 23
REMARK SMILES IDX 21 24 23 25 22 26
REMARK H PARENT 6 15
ROOT
ATOM      1  C   UNL     1      85.535  53.161  40.442  1.00  0.00     0.137 A 
ATOM      2  C   UNL     1      84.336  53.206  41.157  1.00  0.00     0.093 A 
ATOM      3  C   UNL     1      84.131  52.330  42.220  1.00  0.00     0.126 A 
ATOM      4  C   UNL     1      85.115  51.410  42.604  1.00  0.00     0.041 A 
ATOM      5  C   UNL     1      86.322  51.379  41.877  1.00  0.00     0.142 A 
ATOM      6  C   UNL     1      86.544  52.262  40.808  1.00  0.00     0.102 A 
ATOM      7  C   UNL     1      87.865  52.213  40.124  1.00  0.00     0.174 C 
ATOM      8  O   UNL     1      88.117  52.867  39.118  1.00  0.00    -0.294 OA
ATOM      9  C   UNL     1      88.906  51.329  40.747  1.00  0.00     0.131 C 
ATOM     10  C   UNL     1      88.198  50.097  41.276  1.00  0.00     0.211 C 
ATOM     11  O   UNL     1      87.266  50.472  42.297  1.00  0.00    -0.484 OA
ENDROOT
BRANCH   1  12
ATOM     12  O   UNL     1      85.699  54.093  39.453  1.00  0.00    -0.496 OA
ATOM     13  C   UNL     1      84.491  54.833  39.257  1.00  0.00     0.278 C 
ENDBRANCH   1  12
BRANCH   3  14
ATOM     14  O   UNL     1      82.949  52.366  42.907  1.00  0.00    -0.507 OA
ATOM     15  H   UNL     1      82.592  51.465  42.982  1.00  0.00     0.293 HD
ENDBRANCH   3  14
BRANCH   4  16
ATOM     16  C   UNL     1      84.867  50.439  43.742  1.00  0.00     0.070 C 
BRANCH  16  17
ATOM     17  C   UNL     1      85.200  51.042  45.083  1.00  0.00    -0.023 C 
ATOM     18  C   UNL     1      86.310  50.875  45.828  1.00  0.00    -0.080 C 
ATOM     19  C   UNL     1      86.456  51.577  47.152  1.00  0.00     0.039 C 
ATOM     20  C   UNL     1      87.484  50.008  45.461  1.00  0.00     0.039 C 
ENDBRANCH  16  17
ENDBRANCH   4  16
BRANCH  10  21
ATOM     21  C   UNL     1      89.191  49.112  41.865  1.00  0.00    -0.007 A 
ATOM     22  C   UNL     1      90.303  49.582  42.581  1.00  0.00     0.007 A 
ATOM     23  C   UNL     1      89.011  47.726  41.735  1.00  0.00     0.007 A 
ATOM     24  C   UNL     1      91.217  48.687  43.141  1.00  0.00     0.000 A 
ATOM     25  C   UNL     1      89.926  46.834  42.296  1.00  0.00     0.000 A 
ATOM     26  C   UNL     1      91.029  47.314  42.998  1.00  0.00     0.000 A 
ENDBRANCH  10  21
TORSDOF 5
ENDMDL
MODEL 5
REMARK VINA RESULT:    -8.582      2.004      5.891
REMARK INTER + INTRA:         -11.820
REMARK INTER:                 -10.862
REMARK INTRA:                  -0.958
REMARK UNBOUND:                -0.981
REMARK SMILES COc1cc(O)c(CC=C(C)C)c2c1C(=O)C[C@@H](c1ccccc1)O2
REMARK SMILES IDX 3 1 4 2 5 3 7 4 13 5 14 6 15 7 16 8 17 9 18 10 25 11 2 12
REMARK SMILES IDX 1 13 6 14 8 16 9 17 10 18 11 19 12 20 19 21 20 22 24 23
REMARK SMILES IDX 21 24 23 25 22 26
REMARK H PARENT 6 15
ROOT
ATOM      1  C   UNL     1      82.176  48.865  43.711  1.00  0.00     0.137 A 
ATOM      2  C   UNL     1      82.552  50.200  43.869  1.00  0.00     0.093 A 
ATOM      3  C   UNL     1      83.902  50.542  43.887  1.00  0.00     0.126 A 
ATOM      4  C   UNL     1      84.900  49.571  43.730  1.00  0.00     0.041 A 
ATOM      5  C   UNL     1      84.506  48.227  43.567  1.00  0.00     0.142 A 
ATOM      6  C   UNL     1      83.147  47.871  43.539  1.00  0.00     0.102 A 
ATOM      7  C   UNL     1      82.804  46.443  43.303  1.00  0.00     0.174 C 
ATOM      8  O   UNL     1      81.656  46.016  43.365  1.00  0.00    -0.294 OA
ATOM      9  C   UNL     1      83.945  45.532  42.952  1.00  0.00     0.131 C 
ATOM     10  C   UNL     1      85.146  45.974  43.765  1.00  0.00     0.211 C 
ATOM     11  O   UNL     1      85.516  47.309  43.401  1.00  0.00    -0.484 OA
ENDROOT
BRANCH   1  12
ATOM     12  O   UNL     1      80.833  48.607  43.635  1.00  0.00    -0.496 OA
ATOM     13  C   UNL     1      80.135  49.737  43.108  1.00  0.00     0.278 C 
ENDBRANCH   1  12
BRANCH   3  14
ATOM     14  O   UNL     1      84.267  51.848  44.059  1.00  0.00    -0.507 OA
ATOM     15  H   UNL     1      83.622  52.424  43.614  1.00  0.00     0.293 HD
ENDBRANCH   3  14
BRANCH   4  16
ATOM     16  C   UNL     1      86.367  49.950  43.785  1.00  0.00     0.070 C 
BRANCH  16  17
ATOM     17  C   UNL     1      86.950  49.759  45.161  1.00  0.00    -0.023 C 
ATOM     18  C   UNL     1      87.284  50.697  46.070  1.00  0.00    -0.080 C 
ATOM     19  C   UNL     1      87.854  50.298  47.406  1.00  0.00     0.039 C 
ATOM     20  C   UNL     1      87.146  52.182  45.881  1.00  0.00     0.039 C 
ENDBRANCH  16  17
ENDBRANCH   4  16
BRANCH  10  21
ATOM     21  C   UNL     1      86.332  45.060  43.523  1.00  0.00    -0.007 A 
ATOM     22  C   UNL     1      87.462  45.543  42.845  1.00  0.00     0.007 A 
ATOM     23  C   UNL     1      86.341  43.735  43.987  1.00  0.00     0.007 A 
ATOM     24  C   UNL     1      88.567  44.717  42.627  1.00  0.00     0.000 A 
ATOM     25  C   UNL     1      87.446  42.912  43.768  1.00  0.00     0.000 A 
ATOM     26  C   UNL     1      88.558  43.402  43.088  1.00  0.00     0.000 A 
ENDBRANCH  10  21
TORSDOF 5
ENDMDL
MODEL 6
REMARK VINA RESULT:    -8.513      1.606      2.317
REMARK INTER + INTRA:         -11.734
REMARK INTER:                 -10.865
REMARK INTRA:                  -0.868
REMARK UNBOUND:                -0.981
REMARK SMILES COc1cc(O)c(CC=C(C)C)c2c1C(=O)C[C@@H](c1ccccc1)O2
REMARK SMILES IDX 3 1 4 2 5 3 7 4 13 5 14 6 15 7 16 8 17 9 18 10 25 11 2 12
REMARK SMILES IDX 1 13 6 14 8 16 9 17 10 18 11 19 12 20 19 21 20 22 24 23
REMARK SMILES IDX 21 24 23 25 22 26
REMARK H PARENT 6 15
ROOT
ATOM      1  C   UNL     1      87.378  46.155  42.321  1.00  0.00     0.137 A 
ATOM      2  C   UNL     1      88.296  47.190  42.509  1.00  0.00     0.093 A 
ATOM      3  C   UNL     1      87.883  48.382  43.100  1.00  0.00     0.126 A 
ATOM      4  C   UNL     1      86.562  48.561  43.531  1.00  0.00     0.041 A 
ATOM      5  C   UNL     1      85.648  47.505  43.340  1.00  0.00     0.142 A 
ATOM      6  C   UNL     1      86.053  46.295  42.752  1.00  0.00     0.102 A 
ATOM      7  C   UNL     1      85.050  45.203  42.636  1.00  0.00     0.174 C 
ATOM      8  O   UNL     1      85.276  44.152  42.046  1.00  0.00    -0.294 OA
ATOM      9  C   UNL     1      83.728  45.438  43.309  1.00  0.00     0.131 C 
ATOM     10  C   UNL     1      83.385  46.904  43.136  1.00  0.00     0.211 C 
ATOM     11  O   UNL     1      84.367  47.716  43.791  1.00  0.00    -0.484 OA
ENDROOT
BRANCH   1  12
ATOM     12  O   UNL     1      87.865  44.988  41.796  1.00  0.00    -0.496 OA
ATOM     13  C   UNL     1      88.679  44.308  42.754  1.00  0.00     0.278 C 
ENDBRANCH   1  12
BRANCH   3  14
ATOM     14  O   UNL     1      88.781  49.400  43.267  1.00  0.00    -0.507 OA
ATOM     15  H   UNL     1      88.604  49.851  44.110  1.00  0.00     0.293 HD
ENDBRANCH   3  14
BRANCH   4  16
ATOM     16  C   UNL     1      86.116  49.874  44.143  1.00  0.00     0.070 C 
BRANCH  16  17
ATOM     17  C   UNL     1      86.316  49.899  45.637  1.00  0.00    -0.023 C 
ATOM     18  C   UNL     1      86.879  50.862  46.394  1.00  0.00    -0.080 C 
ATOM     19  C   UNL     1      86.981  50.698  47.888  1.00  0.00     0.039 C 
ATOM     20  C   UNL     1      87.454  52.152  45.877  1.00  0.00     0.039 C 
ENDBRANCH  16  17
ENDBRANCH   4  16
BRANCH  10  21
ATOM     21  C   UNL     1      82.024  47.217  43.730  1.00  0.00    -0.007 A 
ATOM     22  C   UNL     1      81.505  48.518  43.647  1.00  0.00     0.007 A 
ATOM     23  C   UNL     1      81.248  46.221  44.345  1.00  0.00     0.007 A 
ATOM     24  C   UNL     1      80.248  48.817  44.177  1.00  0.00     0.000 A 
ATOM     25  C   UNL     1      79.992  46.522  44.873  1.00  0.00     0.000 A 
ATOM     26  C   UNL     1      79.493  47.819  44.790  1.00  0.00     0.000 A 
ENDBRANCH  10  21
TORSDOF 5
ENDMDL
MODEL 7
REMARK VINA RESULT:    -8.443      5.110      8.234
REMARK INTER + INTRA:         -11.645
REMARK INTER:                 -10.746
REMARK INTRA:                  -0.900
REMARK UNBOUND:                -0.981
REMARK SMILES COc1cc(O)c(CC=C(C)C)c2c1C(=O)C[C@@H](c1ccccc1)O2
REMARK SMILES IDX 3 1 4 2 5 3 7 4 13 5 14 6 15 7 16 8 17 9 18 10 25 11 2 12
REMARK SMILES IDX 1 13 6 14 8 16 9 17 10 18 11 19 12 20 19 21 20 22 24 23
REMARK SMILES IDX 21 24 23 25 22 26
REMARK H PARENT 6 15
ROOT
ATOM      1  C   UNL     1      85.701  52.892  47.980  1.00  0.00     0.137 A 
ATOM      2  C   UNL     1      85.452  54.266  47.970  1.00  0.00     0.093 A 
ATOM      3  C   UNL     1      85.817  55.027  46.862  1.00  0.00     0.126 A 
ATOM      4  C   UNL     1      86.416  54.438  45.740  1.00  0.00     0.041 A 
ATOM      5  C   UNL     1      86.656  53.050  45.763  1.00  0.00     0.142 A 
ATOM      6  C   UNL     1      86.286  52.270  46.871  1.00  0.00     0.102 A 
ATOM      7  C   UNL     1      86.516  50.802  46.801  1.00  0.00     0.174 C 
ATOM      8  O   UNL     1      86.325  50.052  47.752  1.00  0.00    -0.294 OA
ATOM      9  C   UNL     1      86.978  50.261  45.478  1.00  0.00     0.131 C 
ATOM     10  C   UNL     1      87.926  51.281  44.877  1.00  0.00     0.211 C 
ATOM     11  O   UNL     1      87.232  52.510  44.636  1.00  0.00    -0.484 OA
ENDROOT
BRANCH   1  12
ATOM     12  O   UNL     1      85.257  52.194  49.071  1.00  0.00    -0.496 OA
ATOM     13  C   UNL     1      83.926  52.587  49.411  1.00  0.00     0.278 C 
ENDBRANCH   1  12
BRANCH   3  14
ATOM     14  O   UNL     1      85.587  56.375  46.862  1.00  0.00    -0.507 OA
ATOM     15  H   UNL     1      86.018  56.776  46.089  1.00  0.00     0.293 HD
ENDBRANCH   3  14
BRANCH   4  16
ATOM     16  C   UNL     1      86.839  55.282  44.553  1.00  0.00     0.070 C 
BRANCH  16  17
ATOM     17  C   UNL     1      85.924  55.093  43.371  1.00  0.00    -0.023 C 
ATOM     18  C   UNL     1      84.986  55.934  42.890  1.00  0.00    -0.080 C 
ATOM     19  C   UNL     1      84.171  55.559  41.681  1.00  0.00     0.039 C 
ATOM     20  C   UNL     1      84.643  57.279  43.469  1.00  0.00     0.039 C 
ENDBRANCH  16  17
ENDBRANCH   4  16
BRANCH  10  21
ATOM     21  C   UNL     1      88.497  50.782  43.563  1.00  0.00    -0.007 A 
ATOM     22  C   UNL     1      88.563  51.642  42.456  1.00  0.00     0.007 A 
ATOM     23  C   UNL     1      88.994  49.475  43.430  1.00  0.00     0.007 A 
ATOM     24  C   UNL     1      89.100  51.202  41.244  1.00  0.00     0.000 A 
ATOM     25  C   UNL     1      89.529  49.037  42.218  1.00  0.00     0.000 A 
ATOM     26  C   UNL     1      89.581  49.900  41.126  1.00  0.00     0.000 A 
ENDBRANCH  10  21
TORSDOF 5
ENDMDL
MODEL 8
REMARK VINA RESULT:    -8.406      2.687      6.111
REMARK INTER + INTRA:         -11.599
REMARK INTER:                 -10.479
REMARK INTRA:                  -1.120
REMARK UNBOUND:                -0.981
REMARK SMILES COc1cc(O)c(CC=C(C)C)c2c1C(=O)C[C@@H](c1ccccc1)O2
REMARK SMILES IDX 3 1 4 2 5 3 7 4 13 5 14 6 15 7 16 8 17 9 18 10 25 11 2 12
REMARK SMILES IDX 1 13 6 14 8 16 9 17 10 18 11 19 12 20 19 21 20 22 24 23
REMARK SMILES IDX 21 24 23 25 22 26
REMARK H PARENT 6 15
ROOT
ATOM      1  C   UNL     1      85.614  52.371  43.193  1.00  0.00     0.137 A 
ATOM      2  C   UNL     1      86.617  53.116  42.570  1.00  0.00     0.093 A 
ATOM      3  C   UNL     1      87.685  52.464  41.959  1.00  0.00     0.126 A 
ATOM      4  C   UNL     1      87.767  51.065  41.938  1.00  0.00     0.041 A 
ATOM      5  C   UNL     1      86.745  50.326  42.567  1.00  0.00     0.142 A 
ATOM      6  C   UNL     1      85.659  50.971  43.180  1.00  0.00     0.102 A 
ATOM      7  C   UNL     1      84.587  50.127  43.772  1.00  0.00     0.174 C 
ATOM      8  O   UNL     1      83.654  50.592  44.418  1.00  0.00    -0.294 OA
ATOM      9  C   UNL     1      84.684  48.650  43.516  1.00  0.00     0.131 C 
ATOM     10  C   UNL     1      86.153  48.278  43.557  1.00  0.00     0.211 C 
ATOM     11  O   UNL     1      86.857  48.957  42.510  1.00  0.00    -0.484 OA
ENDROOT
BRANCH   1  12
ATOM     12  O   UNL     1      84.560  53.072  43.716  1.00  0.00    -0.496 OA
ATOM     13  C   UNL     1      85.011  53.977  44.726  1.00  0.00     0.278 C 
ENDBRANCH   1  12
BRANCH   3  14
ATOM     14  O   UNL     1      88.674  53.197  41.363  1.00  0.00    -0.507 OA
ATOM     15  H   UNL     1      89.532  52.769  41.522  1.00  0.00     0.293 HD
ENDBRANCH   3  14
BRANCH   4  16
ATOM     16  C   UNL     1      88.952  50.366  41.298  1.00  0.00     0.070 C 
BRANCH  16  17
ATOM     17  C   UNL     1      89.977  49.943  42.318  1.00  0.00    -0.023 C 
ATOM     18  C   UNL     1      90.610  48.759  42.433  1.00  0.00    -0.080 C 
ATOM     19  C   UNL     1      91.617  48.532  43.530  1.00  0.00     0.039 C 
ATOM     20  C   UNL     1      90.402  47.569  41.536  1.00  0.00     0.039 C 
ENDBRANCH  16  17
ENDBRANCH   4  16
BRANCH  10  21
ATOM     21  C   UNL     1      86.339  46.783  43.375  1.00  0.00    -0.007 A 
ATOM     22  C   UNL     1      87.269  46.301  42.442  1.00  0.00     0.007 A 
ATOM     23  C   UNL     1      85.615  45.857  44.143  1.00  0.00     0.007 A 
ATOM     24  C   UNL     1      87.462  44.928  42.274  1.00  0.00     0.000 A 
ATOM     25  C   UNL     1      85.809  44.485  43.973  1.00  0.00     0.000 A 
ATOM     26  C   UNL     1      86.731  44.022  43.039  1.00  0.00     0.000 A 
ENDBRANCH  10  21
TORSDOF 5
ENDMDL
MODEL 9
REMARK VINA RESULT:    -8.293      5.241      7.061
REMARK INTER + INTRA:         -11.455
REMARK INTER:                 -10.474
REMARK INTRA:                  -0.981
REMARK UNBOUND:                -0.981
REMARK SMILES COc1cc(O)c(CC=C(C)C)c2c1C(=O)C[C@@H](c1ccccc1)O2
REMARK SMILES IDX 3 1 4 2 5 3 7 4 13 5 14 6 15 7 16 8 17 9 18 10 25 11 2 12
REMARK SMILES IDX 1 13 6 14 8 16 9 17 10 18 11 19 12 20 19 21 20 22 24 23
REMARK SMILES IDX 21 24 23 25 22 26
REMARK H PARENT 6 15
ROOT
ATOM      1  C   UNL     1      87.821  51.045  42.342  1.00  0.00     0.137 A 
ATOM      2  C   UNL     1      87.569  51.610  41.090  1.00  0.00     0.093 A 
ATOM      3  C   UNL     1      86.780  52.754  40.993  1.00  0.00     0.126 A 
ATOM      4  C   UNL     1      86.246  53.368  42.134  1.00  0.00     0.041 A 
ATOM      5  C   UNL     1      86.514  52.790  43.391  1.00  0.00     0.142 A 
ATOM      6  C   UNL     1      87.313  51.640  43.503  1.00  0.00     0.102 A 
ATOM      7  C   UNL     1      87.602  51.119  44.866  1.00  0.00     0.174 C 
ATOM      8  O   UNL     1      88.200  50.067  45.063  1.00  0.00    -0.294 OA
ATOM      9  C   UNL     1      87.144  51.970  46.016  1.00  0.00     0.131 C 
ATOM     10  C   UNL     1      85.813  52.582  45.625  1.00  0.00     0.211 C 
ATOM     11  O   UNL     1      85.983  53.432  44.485  1.00  0.00    -0.484 OA
ENDROOT
BRANCH   1  12
ATOM     12  O   UNL     1      88.656  49.961  42.372  1.00  0.00    -0.496 OA
ATOM     13  C   UNL     1      89.638  50.056  41.338  1.00  0.00     0.278 C 
ENDBRANCH   1  12
BRANCH   3  14
ATOM     14  O   UNL     1      86.522  53.295  39.764  1.00  0.00    -0.507 OA
ATOM     15  H   UNL     1      85.638  53.700  39.770  1.00  0.00     0.293 HD
ENDBRANCH   3  14
BRANCH   4  16
ATOM     16  C   UNL     1      85.363  54.595  42.014  1.00  0.00     0.070 C 
BRANCH  16  17
ATOM     17  C   UNL     1      83.900  54.236  41.964  1.00  0.00    -0.023 C 
ATOM     18  C   UNL     1      83.021  54.430  40.962  1.00  0.00    -0.080 C 
ATOM     19  C   UNL     1      81.587  53.991  41.107  1.00  0.00     0.039 C 
ATOM     20  C   UNL     1      83.332  55.082  39.643  1.00  0.00     0.039 C 
ENDBRANCH  16  17
ENDBRANCH   4  16
BRANCH  10  21
ATOM     21  C   UNL     1      85.241  53.407  46.763  1.00  0.00    -0.007 A 
ATOM     22  C   UNL     1      84.798  54.717  46.525  1.00  0.00     0.007 A 
ATOM     23  C   UNL     1      85.115  52.879  48.058  1.00  0.00     0.007 A 
ATOM     24  C   UNL     1      84.256  55.483  47.559  1.00  0.00     0.000 A 
ATOM     25  C   UNL     1      84.574  53.647  49.090  1.00  0.00     0.000 A 
ATOM     26  C   UNL     1      84.144  54.948  48.840  1.00  0.00     0.000 A 
ENDBRANCH  10  21
TORSDOF 5
ENDMDL
