MODEL 1
REMARK VINA RESULT:    -8.750      0.000      0.000
REMARK INTER + INTRA:         -12.031
REMARK INTER:                 -11.269
REMARK INTRA:                  -0.762
REMARK UNBOUND:                -0.979
REMARK SMILES C=C(C)/C=C/c1c(OC)cc(O)c2c1O[C@H](c1ccccc1)CC2=O
REMARK SMILES IDX 7 1 10 2 11 3 13 4 14 5 6 6 15 7 16 8 23 9 24 10 25 11 8 12
REMARK SMILES IDX 9 13 5 14 4 15 2 16 1 17 3 18 12 19 17 21 18 22 22 23 19 24
REMARK SMILES IDX 21 25 20 26
REMARK H PARENT 12 20
ROOT
ATOM      1  C   UNL     1      85.359  52.997  42.843  1.00  0.00     0.133 A 
ATOM      2  C   UNL     1      85.371  53.555  41.557  1.00  0.00     0.094 A 
ATOM      3  C   UNL     1      86.322  53.150  40.622  1.00  0.00     0.133 A 
ATOM      4  C   UNL     1      87.270  52.181  40.952  1.00  0.00     0.102 A 
ATOM      5  C   UNL     1      87.260  51.603  42.223  1.00  0.00     0.145 A 
ATOM      6  C   UNL     1      86.307  52.002  43.182  1.00  0.00     0.060 A 
ATOM      7  O   UNL     1      88.188  50.657  42.592  1.00  0.00    -0.484 OA
ATOM      8  C   UNL     1      88.644  49.852  41.493  1.00  0.00     0.211 C 
ATOM      9  C   UNL     1      89.317  50.751  40.464  1.00  0.00     0.131 C 
ATOM     10  C   UNL     1      88.311  51.764  39.994  1.00  0.00     0.174 C 
ATOM     11  O   UNL     1      88.358  52.279  38.879  1.00  0.00    -0.294 OA
ENDROOT
BRANCH   1  12
ATOM     12  O   UNL     1      84.475  53.362  43.827  1.00  0.00    -0.496 OA
ATOM     13  C   UNL     1      84.694  54.600  44.490  1.00  0.00     0.278 C 
ENDBRANCH   1  12
BRANCH   6  14
ATOM     14  C   UNL     1      86.347  51.369  44.516  1.00  0.00     0.016 C 
ATOM     15  C   UNL     1      87.032  51.885  45.549  1.00  0.00     0.004 C 
BRANCH  15  16
ATOM     16  C   UNL     1      87.078  51.341  46.900  1.00  0.00    -0.058 C 
ATOM     17  C   UNL     1      86.195  51.762  47.820  1.00  0.00     0.012 C 
ATOM     18  C   UNL     1      88.117  50.309  47.249  1.00  0.00     0.043 C 
ENDBRANCH  15  16
ENDBRANCH   6  14
BRANCH   3  19
ATOM     19  O   UNL     1      86.271  53.758  39.396  1.00  0.00    -0.507 OA
ATOM     20  H   UNL     1      86.733  53.180  38.746  1.00  0.00     0.293 HD
ENDBRANCH   3  19
BRANCH   8  21
ATOM     21  C   UNL     1      89.512  48.750  42.080  1.00  0.00    -0.007 A 
ATOM     22  C   UNL     1      90.511  49.108  43.007  1.00  0.00     0.007 A 
ATOM     23  C   UNL     1      89.363  47.391  41.764  1.00  0.00     0.007 A 
ATOM     24  C   UNL     1      91.333  48.144  43.592  1.00  0.00     0.000 A 
ATOM     25  C   UNL     1      90.187  46.426  42.353  1.00  0.00     0.000 A 
ATOM     26  C   UNL     1      91.169  46.801  43.265  1.00  0.00     0.000 A 
ENDBRANCH   8  21
TORSDOF 5
ENDMDL
MODEL 2
REMARK VINA RESULT:    -8.486      1.677      6.076
REMARK INTER + INTRA:         -11.698
REMARK INTER:                 -10.971
REMARK INTRA:                  -0.727
REMARK UNBOUND:                -0.979
REMARK SMILES C=C(C)/C=C/c1c(OC)cc(O)c2c1O[C@H](c1ccccc1)CC2=O
REMARK SMILES IDX 7 1 10 2 11 3 13 4 14 5 6 6 15 7 16 8 23 9 24 10 25 11 8 12
REMARK SMILES IDX 9 13 5 14 4 15 2 16 1 17 3 18 12 19 17 21 18 22 22 23 19 24
REMARK SMILES IDX 21 25 20 26
REMARK H PARENT 12 20
ROOT
ATOM      1  C   UNL     1      88.234  50.736  42.348  1.00  0.00     0.133 A 
ATOM      2  C   UNL     1      88.113  51.378  41.109  1.00  0.00     0.094 A 
ATOM      3  C   UNL     1      87.224  52.441  40.950  1.00  0.00     0.133 A 
ATOM      4  C   UNL     1      86.449  52.880  42.023  1.00  0.00     0.102 A 
ATOM      5  C   UNL     1      86.571  52.262  43.268  1.00  0.00     0.145 A 
ATOM      6  C   UNL     1      87.463  51.185  43.447  1.00  0.00     0.060 A 
ATOM      7  O   UNL     1      85.812  52.655  44.346  1.00  0.00    -0.484 OA
ATOM      8  C   UNL     1      85.473  54.051  44.321  1.00  0.00     0.211 C 
ATOM      9  C   UNL     1      84.650  54.340  43.073  1.00  0.00     0.131 C 
ATOM     10  C   UNL     1      85.472  53.975  41.870  1.00  0.00     0.174 C 
ATOM     11  O   UNL     1      85.326  54.516  40.776  1.00  0.00    -0.294 OA
ENDROOT
BRANCH   1  12
ATOM     12  O   UNL     1      89.064  49.667  42.578  1.00  0.00    -0.496 OA
ATOM     13  C   UNL     1      90.155  49.470  41.688  1.00  0.00     0.278 C 
ENDBRANCH   1  12
BRANCH   6  14
ATOM     14  C   UNL     1      87.547  50.557  44.781  1.00  0.00     0.016 C 
ATOM     15  C   UNL     1      87.717  51.263  45.911  1.00  0.00     0.004 C 
BRANCH  15  16
ATOM     16  C   UNL     1      87.762  50.716  47.261  1.00  0.00    -0.058 C 
ATOM     17  C   UNL     1      88.813  49.975  47.648  1.00  0.00     0.012 C 
ATOM     18  C   UNL     1      86.627  50.992  48.210  1.00  0.00     0.043 C 
ENDBRANCH  15  16
ENDBRANCH   6  14
BRANCH   3  19
ATOM     19  O   UNL     1      87.158  53.000  39.702  1.00  0.00    -0.507 OA
ATOM     20  H   UNL     1      86.999  52.279  39.049  1.00  0.00     0.293 HD
ENDBRANCH   3  19
BRANCH   8  21
ATOM     21  C   UNL     1      84.803  54.369  45.648  1.00  0.00    -0.007 A 
ATOM     22  C   UNL     1      84.408  53.296  46.471  1.00  0.00     0.007 A 
ATOM     23  C   UNL     1      84.569  55.672  46.110  1.00  0.00     0.007 A 
ATOM     24  C   UNL     1      83.798  53.519  47.707  1.00  0.00     0.000 A 
ATOM     25  C   UNL     1      83.960  55.895  47.349  1.00  0.00     0.000 A 
ATOM     26  C   UNL     1      83.575  54.820  48.146  1.00  0.00     0.000 A 
ENDBRANCH   8  21
TORSDOF 5
ENDMDL
MODEL 3
REMARK VINA RESULT:    -8.446      4.315      5.433
REMARK INTER + INTRA:         -11.647
REMARK INTER:                 -11.029
REMARK INTRA:                  -0.618
REMARK UNBOUND:                -0.979
REMARK SMILES C=C(C)/C=C/c1c(OC)cc(O)c2c1O[C@H](c1ccccc1)CC2=O
REMARK SMILES IDX 7 1 10 2 11 3 13 4 14 5 6 6 15 7 16 8 23 9 24 10 25 11 8 12
REMARK SMILES IDX 9 13 5 14 4 15 2 16 1 17 3 18 12 19 17 21 18 22 22 23 19 24
REMARK SMILES IDX 21 25 20 26
REMARK H PARENT 12 20
ROOT
ATOM      1  C   UNL     1      85.625  54.962  44.868  1.00  0.00     0.133 A 
ATOM      2  C   UNL     1      85.520  55.770  43.728  1.00  0.00     0.094 A 
ATOM      3  C   UNL     1      84.875  55.298  42.586  1.00  0.00     0.133 A 
ATOM      4  C   UNL     1      84.322  54.018  42.567  1.00  0.00     0.102 A 
ATOM      5  C   UNL     1      84.403  53.207  43.700  1.00  0.00     0.145 A 
ATOM      6  C   UNL     1      85.053  53.668  44.862  1.00  0.00     0.060 A 
ATOM      7  O   UNL     1      83.885  51.933  43.714  1.00  0.00    -0.484 OA
ATOM      8  C   UNL     1      82.740  51.777  42.859  1.00  0.00     0.211 C 
ATOM      9  C   UNL     1      83.150  52.070  41.422  1.00  0.00     0.131 C 
ATOM     10  C   UNL     1      83.669  53.479  41.358  1.00  0.00     0.174 C 
ATOM     11  O   UNL     1      83.610  54.163  40.338  1.00  0.00    -0.294 OA
ENDROOT
BRANCH   1  12
ATOM     12  O   UNL     1      86.268  55.343  46.019  1.00  0.00    -0.496 OA
ATOM     13  C   UNL     1      85.703  56.407  46.774  1.00  0.00     0.278 C 
ENDBRANCH   1  12
BRANCH   6  14
ATOM     14  C   UNL     1      85.123  52.767  46.031  1.00  0.00     0.016 C 
ATOM     15  C   UNL     1      86.281  52.299  46.524  1.00  0.00     0.004 C 
BRANCH  15  16
ATOM     16  C   UNL     1      86.427  51.447  47.698  1.00  0.00    -0.058 C 
ATOM     17  C   UNL     1      85.897  51.829  48.871  1.00  0.00     0.012 C 
ATOM     18  C   UNL     1      87.170  50.144  47.579  1.00  0.00     0.043 C 
ENDBRANCH  15  16
ENDBRANCH   6  14
BRANCH   3  19
ATOM     19  O   UNL     1      84.831  56.147  41.513  1.00  0.00    -0.507 OA
ATOM     20  H   UNL     1      85.240  55.691  40.742  1.00  0.00     0.293 HD
ENDBRANCH   3  19
BRANCH   8  21
ATOM     21  C   UNL     1      82.178  50.388  43.119  1.00  0.00    -0.007 A 
ATOM     22  C   UNL     1      83.073  49.361  43.479  1.00  0.00     0.007 A 
ATOM     23  C   UNL     1      80.813  50.074  43.038  1.00  0.00     0.007 A 
ATOM     24  C   UNL     1      82.620  48.068  43.743  1.00  0.00     0.000 A 
ATOM     25  C   UNL     1      80.360  48.778  43.304  1.00  0.00     0.000 A 
ATOM     26  C   UNL     1      81.262  47.777  43.657  1.00  0.00     0.000 A 
ENDBRANCH   8  21
TORSDOF 5
ENDMDL
MODEL 4
REMARK VINA RESULT:    -8.415      1.351      2.018
REMARK INTER + INTRA:         -11.608
REMARK INTER:                 -10.811
REMARK INTRA:                  -0.797
REMARK UNBOUND:                -0.979
REMARK SMILES C=C(C)/C=C/c1c(OC)cc(O)c2c1O[C@H](c1ccccc1)CC2=O
REMARK SMILES IDX 7 1 10 2 11 3 13 4 14 5 6 6 15 7 16 8 23 9 24 10 25 11 8 12
REMARK SMILES IDX 9 13 5 14 4 15 2 16 1 17 3 18 12 19 17 21 18 22 22 23 19 24
REMARK SMILES IDX 21 25 20 26
REMARK H PARENT 12 20
ROOT
ATOM      1  C   UNL     1      85.439  54.629  44.568  1.00  0.00     0.133 A 
ATOM      2  C   UNL     1      84.905  55.204  43.407  1.00  0.00     0.094 A 
ATOM      3  C   UNL     1      85.230  54.691  42.152  1.00  0.00     0.133 A 
ATOM      4  C   UNL     1      86.088  53.596  42.038  1.00  0.00     0.102 A 
ATOM      5  C   UNL     1      86.614  53.002  43.186  1.00  0.00     0.145 A 
ATOM      6  C   UNL     1      86.297  53.509  44.462  1.00  0.00     0.060 A 
ATOM      7  O   UNL     1      87.476  51.932  43.113  1.00  0.00    -0.484 OA
ATOM      8  C   UNL     1      87.242  51.092  41.971  1.00  0.00     0.211 C 
ATOM      9  C   UNL     1      87.448  51.910  40.703  1.00  0.00     0.131 C 
ATOM     10  C   UNL     1      86.480  53.059  40.721  1.00  0.00     0.174 C 
ATOM     11  O   UNL     1      86.052  53.583  39.694  1.00  0.00    -0.294 OA
ENDROOT
BRANCH   1  12
ATOM     12  O   UNL     1      85.190  55.093  45.835  1.00  0.00    -0.496 OA
ATOM     13  C   UNL     1      85.764  56.338  46.211  1.00  0.00     0.278 C 
ENDBRANCH   1  12
BRANCH   6  14
ATOM     14  C   UNL     1      86.890  52.852  45.645  1.00  0.00     0.016 C 
ATOM     15  C   UNL     1      86.196  52.025  46.446  1.00  0.00     0.004 C 
BRANCH  15  16
ATOM     16  C   UNL     1      86.727  51.309  47.598  1.00  0.00    -0.058 C 
ATOM     17  C   UNL     1      86.199  51.517  48.815  1.00  0.00     0.012 C 
ATOM     18  C   UNL     1      87.862  50.339  47.409  1.00  0.00     0.043 C 
ENDBRANCH  15  16
ENDBRANCH   6  14
BRANCH   3  19
ATOM     19  O   UNL     1      84.677  55.322  41.071  1.00  0.00    -0.507 OA
ATOM     20  H   UNL     1      83.773  54.957  40.930  1.00  0.00     0.293 HD
ENDBRANCH   3  19
BRANCH   8  21
ATOM     21  C   UNL     1      88.136  49.872  42.126  1.00  0.00    -0.007 A 
ATOM     22  C   UNL     1      89.252  49.965  42.981  1.00  0.00     0.007 A 
ATOM     23  C   UNL     1      87.902  48.649  41.480  1.00  0.00     0.007 A 
ATOM     24  C   UNL     1      90.105  48.878  43.177  1.00  0.00     0.000 A 
ATOM     25  C   UNL     1      88.756  47.560  41.678  1.00  0.00     0.000 A 
ATOM     26  C   UNL     1      89.856  47.674  42.526  1.00  0.00     0.000 A 
ENDBRANCH   8  21
TORSDOF 5
ENDMDL
MODEL 5
REMARK VINA RESULT:    -8.355      4.606      7.743
REMARK INTER + INTRA:         -11.532
REMARK INTER:                 -10.686
REMARK INTRA:                  -0.846
REMARK UNBOUND:                -0.979
REMARK SMILES C=C(C)/C=C/c1c(OC)cc(O)c2c1O[C@H](c1ccccc1)CC2=O
REMARK SMILES IDX 7 1 10 2 11 3 13 4 14 5 6 6 15 7 16 8 23 9 24 10 25 11 8 12
REMARK SMILES IDX 9 13 5 14 4 15 2 16 1 17 3 18 12 19 17 21 18 22 22 23 19 24
REMARK SMILES IDX 21 25 20 26
REMARK H PARENT 12 20
ROOT
ATOM      1  C   UNL     1      84.377  46.502  43.858  1.00  0.00     0.133 A 
ATOM      2  C   UNL     1      83.144  45.845  43.954  1.00  0.00     0.094 A 
ATOM      3  C   UNL     1      81.954  46.549  43.774  1.00  0.00     0.133 A 
ATOM      4  C   UNL     1      81.978  47.915  43.492  1.00  0.00     0.102 A 
ATOM      5  C   UNL     1      83.199  48.580  43.375  1.00  0.00     0.145 A 
ATOM      6  C   UNL     1      84.411  47.884  43.556  1.00  0.00     0.060 A 
ATOM      7  O   UNL     1      83.263  49.929  43.114  1.00  0.00    -0.484 OA
ATOM      8  C   UNL     1      82.162  50.406  42.324  1.00  0.00     0.211 C 
ATOM      9  C   UNL     1      80.864  50.166  43.084  1.00  0.00     0.131 C 
ATOM     10  C   UNL     1      80.732  48.691  43.337  1.00  0.00     0.174 C 
ATOM     11  O   UNL     1      79.644  48.132  43.463  1.00  0.00    -0.294 OA
ENDROOT
BRANCH   1  12
ATOM     12  O   UNL     1      85.589  45.887  44.049  1.00  0.00    -0.496 OA
ATOM     13  C   UNL     1      85.648  44.475  43.896  1.00  0.00     0.278 C 
ENDBRANCH   1  12
BRANCH   6  14
ATOM     14  C   UNL     1      85.677  48.637  43.434  1.00  0.00     0.016 C 
ATOM     15  C   UNL     1      86.262  49.254  44.474  1.00  0.00     0.004 C 
BRANCH  15  16
ATOM     16  C   UNL     1      87.529  49.973  44.437  1.00  0.00    -0.058 C 
ATOM     17  C   UNL     1      87.757  50.971  45.306  1.00  0.00     0.012 C 
ATOM     18  C   UNL     1      88.571  49.586  43.423  1.00  0.00     0.043 C 
ENDBRANCH  15  16
ENDBRANCH   6  14
BRANCH   3  19
ATOM     19  O   UNL     1      80.795  45.832  43.902  1.00  0.00    -0.507 OA
ATOM     20  H   UNL     1      80.235  46.269  44.584  1.00  0.00     0.293 HD
ENDBRANCH   3  19
BRANCH   8  21
ATOM     21  C   UNL     1      82.465  51.853  41.968  1.00  0.00    -0.007 A 
ATOM     22  C   UNL     1      83.791  52.310  42.098  1.00  0.00     0.007 A 
ATOM     23  C   UNL     1      81.500  52.758  41.500  1.00  0.00     0.007 A 
ATOM     24  C   UNL     1      84.138  53.623  41.777  1.00  0.00     0.000 A 
ATOM     25  C   UNL     1      81.849  54.073  41.177  1.00  0.00     0.000 A 
ATOM     26  C   UNL     1      83.166  54.504  41.314  1.00  0.00     0.000 A 
ENDBRANCH   8  21
TORSDOF 5
ENDMDL
MODEL 6
REMARK VINA RESULT:    -8.199      4.564      7.066
REMARK INTER + INTRA:         -11.335
REMARK INTER:                 -10.539
REMARK INTRA:                  -0.796
REMARK UNBOUND:                -0.979
REMARK SMILES C=C(C)/C=C/c1c(OC)cc(O)c2c1O[C@H](c1ccccc1)CC2=O
REMARK SMILES IDX 7 1 10 2 11 3 13 4 14 5 6 6 15 7 16 8 23 9 24 10 25 11 8 12
REMARK SMILES IDX 9 13 5 14 4 15 2 16 1 17 3 18 12 19 17 21 18 22 22 23 19 24
REMARK SMILES IDX 21 25 20 26
REMARK H PARENT 12 20
ROOT
ATOM      1  C   UNL     1      88.000  48.516  42.719  1.00  0.00     0.133 A 
ATOM      2  C   UNL     1      88.459  47.261  42.295  1.00  0.00     0.094 A 
ATOM      3  C   UNL     1      87.631  46.143  42.379  1.00  0.00     0.133 A 
ATOM      4  C   UNL     1      86.335  46.260  42.882  1.00  0.00     0.102 A 
ATOM      5  C   UNL     1      85.858  47.505  43.294  1.00  0.00     0.145 A 
ATOM      6  C   UNL     1      86.682  48.646  43.217  1.00  0.00     0.060 A 
ATOM      7  O   UNL     1      84.593  47.658  43.811  1.00  0.00    -0.484 OA
ATOM      8  C   UNL     1      83.645  46.720  43.275  1.00  0.00     0.211 C 
ATOM      9  C   UNL     1      84.095  45.307  43.620  1.00  0.00     0.131 C 
ATOM     10  C   UNL     1      85.454  45.085  43.020  1.00  0.00     0.174 C 
ATOM     11  O   UNL     1      85.861  43.972  42.691  1.00  0.00    -0.294 OA
ENDROOT
BRANCH   1  12
ATOM     12  O   UNL     1      88.762  49.657  42.695  1.00  0.00    -0.496 OA
ATOM     13  C   UNL     1      89.613  49.864  41.575  1.00  0.00     0.278 C 
ENDBRANCH   1  12
BRANCH   6  14
ATOM     14  C   UNL     1      86.134  49.939  43.676  1.00  0.00     0.016 C 
ATOM     15  C   UNL     1      86.308  50.404  44.924  1.00  0.00     0.004 C 
BRANCH  15  16
ATOM     16  C   UNL     1      85.837  51.687  45.431  1.00  0.00    -0.058 C 
ATOM     17  C   UNL     1      84.589  52.098  45.151  1.00  0.00     0.012 C 
ATOM     18  C   UNL     1      86.756  52.537  46.265  1.00  0.00     0.043 C 
ENDBRANCH  15  16
ENDBRANCH   6  14
BRANCH   3  19
ATOM     19  O   UNL     1      88.165  44.955  41.957  1.00  0.00    -0.507 OA
ATOM     20  H   UNL     1      88.969  45.151  41.422  1.00  0.00     0.293 HD
ENDBRANCH   3  19
BRANCH   8  21
ATOM     21  C   UNL     1      82.275  47.127  43.796  1.00  0.00    -0.007 A 
ATOM     22  C   UNL     1      81.841  48.449  43.573  1.00  0.00     0.007 A 
ATOM     23  C   UNL     1      81.410  46.255  44.472  1.00  0.00     0.007 A 
ATOM     24  C   UNL     1      80.590  48.883  44.014  1.00  0.00     0.000 A 
ATOM     25  C   UNL     1      80.156  46.691  44.913  1.00  0.00     0.000 A 
ATOM     26  C   UNL     1      79.746  48.002  44.683  1.00  0.00     0.000 A 
ENDBRANCH   8  21
TORSDOF 5
ENDMDL
MODEL 7
REMARK VINA RESULT:    -8.124      3.753      5.448
REMARK INTER + INTRA:         -11.240
REMARK INTER:                 -10.346
REMARK INTRA:                  -0.895
REMARK UNBOUND:                -0.979
REMARK SMILES C=C(C)/C=C/c1c(OC)cc(O)c2c1O[C@H](c1ccccc1)CC2=O
REMARK SMILES IDX 7 1 10 2 11 3 13 4 14 5 6 6 15 7 16 8 23 9 24 10 25 11 8 12
REMARK SMILES IDX 9 13 5 14 4 15 2 16 1 17 3 18 12 19 17 21 18 22 22 23 19 24
REMARK SMILES IDX 21 25 20 26
REMARK H PARENT 12 20
ROOT
ATOM      1  C   UNL     1      84.761  50.694  43.679  1.00  0.00     0.133 A 
ATOM      2  C   UNL     1      83.385  50.495  43.857  1.00  0.00     0.094 A 
ATOM      3  C   UNL     1      82.845  49.212  43.795  1.00  0.00     0.133 A 
ATOM      4  C   UNL     1      83.668  48.110  43.559  1.00  0.00     0.102 A 
ATOM      5  C   UNL     1      85.043  48.290  43.397  1.00  0.00     0.145 A 
ATOM      6  C   UNL     1      85.605  49.581  43.455  1.00  0.00     0.060 A 
ATOM      7  O   UNL     1      85.884  47.231  43.147  1.00  0.00    -0.484 OA
ATOM      8  C   UNL     1      85.434  45.999  43.734  1.00  0.00     0.211 C 
ATOM      9  C   UNL     1      84.079  45.634  43.143  1.00  0.00     0.131 C 
ATOM     10  C   UNL     1      83.116  46.746  43.449  1.00  0.00     0.174 C 
ATOM     11  O   UNL     1      81.905  46.566  43.559  1.00  0.00    -0.294 OA
ENDROOT
BRANCH   1  12
ATOM     12  O   UNL     1      85.364  51.927  43.698  1.00  0.00    -0.496 OA
ATOM     13  C   UNL     1      84.773  52.967  42.930  1.00  0.00     0.278 C 
ENDBRANCH   1  12
BRANCH   6  14
ATOM     14  C   UNL     1      87.064  49.719  43.266  1.00  0.00     0.016 C 
ATOM     15  C   UNL     1      87.650  49.684  42.057  1.00  0.00     0.004 C 
BRANCH  15  16
ATOM     16  C   UNL     1      89.072  49.859  41.793  1.00  0.00    -0.058 C 
ATOM     17  C   UNL     1      89.550  51.077  41.491  1.00  0.00     0.012 C 
ATOM     18  C   UNL     1      89.991  48.670  41.864  1.00  0.00     0.043 C 
ENDBRANCH  15  16
ENDBRANCH   6  14
BRANCH   3  19
ATOM     19  O   UNL     1      81.491  49.110  43.964  1.00  0.00    -0.507 OA
ATOM     20  H   UNL     1      81.266  48.159  44.088  1.00  0.00     0.293 HD
ENDBRANCH   3  19
BRANCH   8  21
ATOM     21  C   UNL     1      86.544  44.979  43.531  1.00  0.00    -0.007 A 
ATOM     22  C   UNL     1      87.724  45.396  42.884  1.00  0.00     0.007 A 
ATOM     23  C   UNL     1      86.467  43.648  43.967  1.00  0.00     0.007 A 
ATOM     24  C   UNL     1      88.785  44.513  42.677  1.00  0.00     0.000 A 
ATOM     25  C   UNL     1      87.531  42.765  43.761  1.00  0.00     0.000 A 
ATOM     26  C   UNL     1      88.689  43.197  43.118  1.00  0.00     0.000 A 
ENDBRANCH   8  21
TORSDOF 5
ENDMDL
MODEL 8
REMARK VINA RESULT:    -8.094      3.388      6.604
REMARK INTER + INTRA:         -11.203
REMARK INTER:                 -10.364
REMARK INTRA:                  -0.839
REMARK UNBOUND:                -0.979
REMARK SMILES C=C(C)/C=C/c1c(OC)cc(O)c2c1O[C@H](c1ccccc1)CC2=O
REMARK SMILES IDX 7 1 10 2 11 3 13 4 14 5 6 6 15 7 16 8 23 9 24 10 25 11 8 12
REMARK SMILES IDX 9 13 5 14 4 15 2 16 1 17 3 18 12 19 17 21 18 22 22 23 19 24
REMARK SMILES IDX 21 25 20 26
REMARK H PARENT 12 20
ROOT
ATOM      1  C   UNL     1      86.931  45.998  42.563  1.00  0.00     0.133 A 
ATOM      2  C   UNL     1      88.205  46.085  41.985  1.00  0.00     0.094 A 
ATOM      3  C   UNL     1      88.895  47.296  41.980  1.00  0.00     0.133 A 
ATOM      4  C   UNL     1      88.327  48.435  42.553  1.00  0.00     0.102 A 
ATOM      5  C   UNL     1      87.066  48.360  43.147  1.00  0.00     0.145 A 
ATOM      6  C   UNL     1      86.354  47.143  43.160  1.00  0.00     0.060 A 
ATOM      7  O   UNL     1      86.466  49.464  43.707  1.00  0.00    -0.484 OA
ATOM      8  C   UNL     1      87.406  50.407  44.246  1.00  0.00     0.211 C 
ATOM      9  C   UNL     1      88.301  50.914  43.123  1.00  0.00     0.131 C 
ATOM     10  C   UNL     1      89.018  49.738  42.524  1.00  0.00     0.174 C 
ATOM     11  O   UNL     1      90.117  49.835  41.981  1.00  0.00    -0.294 OA
ENDROOT
BRANCH   1  12
ATOM     12  O   UNL     1      86.178  44.851  42.583  1.00  0.00    -0.496 OA
ATOM     13  C   UNL     1      86.620  43.781  43.408  1.00  0.00     0.278 C 
ENDBRANCH   1  12
BRANCH   6  14
ATOM     14  C   UNL     1      85.018  47.120  43.791  1.00  0.00     0.016 C 
ATOM     15  C   UNL     1      83.894  47.452  43.134  1.00  0.00     0.004 C 
BRANCH  15  16
ATOM     16  C   UNL     1      82.543  47.408  43.677  1.00  0.00    -0.058 C 
ATOM     17  C   UNL     1      81.993  46.227  44.003  1.00  0.00     0.012 C 
ATOM     18  C   UNL     1      81.780  48.690  43.871  1.00  0.00     0.043 C 
ENDBRANCH  15  16
ENDBRANCH   6  14
BRANCH   3  19
ATOM     19  O   UNL     1      90.126  47.296  41.381  1.00  0.00    -0.507 OA
ATOM     20  H   UNL     1      90.416  46.360  41.275  1.00  0.00     0.293 HD
ENDBRANCH   3  19
BRANCH   8  21
ATOM     21  C   UNL     1      86.600  51.465  44.983  1.00  0.00    -0.007 A 
ATOM     22  C   UNL     1      85.237  51.613  44.659  1.00  0.00     0.007 A 
ATOM     23  C   UNL     1      87.133  52.294  45.982  1.00  0.00     0.007 A 
ATOM     24  C   UNL     1      84.439  52.557  45.306  1.00  0.00     0.000 A 
ATOM     25  C   UNL     1      86.332  53.238  46.631  1.00  0.00     0.000 A 
ATOM     26  C   UNL     1      84.986  53.369  46.294  1.00  0.00     0.000 A 
ENDBRANCH   8  21
TORSDOF 5
ENDMDL
MODEL 9
REMARK VINA RESULT:    -8.018      2.089      6.944
REMARK INTER + INTRA:         -11.107
REMARK INTER:                 -10.128
REMARK INTRA:                  -0.979
REMARK UNBOUND:                -0.979
REMARK SMILES C=C(C)/C=C/c1c(OC)cc(O)c2c1O[C@H](c1ccccc1)CC2=O
REMARK SMILES IDX 7 1 10 2 11 3 13 4 14 5 6 6 15 7 16 8 23 9 24 10 25 11 8 12
REMARK SMILES IDX 9 13 5 14 4 15 2 16 1 17 3 18 12 19 17 21 18 22 22 23 19 24
REMARK SMILES IDX 21 25 20 26
REMARK H PARENT 12 20
ROOT
ATOM      1  C   UNL     1      87.701  51.631  41.387  1.00  0.00     0.133 A 
ATOM      2  C   UNL     1      88.356  50.468  41.815  1.00  0.00     0.094 A 
ATOM      3  C   UNL     1      88.422  50.156  43.172  1.00  0.00     0.133 A 
ATOM      4  C   UNL     1      87.833  50.994  44.119  1.00  0.00     0.102 A 
ATOM      5  C   UNL     1      87.162  52.146  43.707  1.00  0.00     0.145 A 
ATOM      6  C   UNL     1      87.087  52.479  42.339  1.00  0.00     0.060 A 
ATOM      7  O   UNL     1      86.584  53.006  44.612  1.00  0.00    -0.484 OA
ATOM      8  C   UNL     1      86.117  52.348  45.801  1.00  0.00     0.211 C 
ATOM      9  C   UNL     1      87.300  51.698  46.505  1.00  0.00     0.131 C 
ATOM     10  C   UNL     1      87.924  50.707  45.564  1.00  0.00     0.174 C 
ATOM     11  O   UNL     1      88.534  49.713  45.953  1.00  0.00    -0.294 OA
ENDROOT
BRANCH   1  12
ATOM     12  O   UNL     1      87.616  52.022  40.074  1.00  0.00    -0.496 OA
ATOM     13  C   UNL     1      88.829  52.287  39.381  1.00  0.00     0.278 C 
ENDBRANCH   1  12
BRANCH   6  14
ATOM     14  C   UNL     1      86.376  53.715  41.956  1.00  0.00     0.016 C 
ATOM     15  C   UNL     1      85.050  53.760  41.747  1.00  0.00     0.004 C 
BRANCH  15  16
ATOM     16  C   UNL     1      84.278  54.951  41.414  1.00  0.00    -0.058 C 
ATOM     17  C   UNL     1      83.749  55.081  40.186  1.00  0.00     0.012 C 
ATOM     18  C   UNL     1      84.081  56.021  42.453  1.00  0.00     0.043 C 
ENDBRANCH  15  16
ENDBRANCH   6  14
BRANCH   3  19
ATOM     19  O   UNL     1      89.094  49.010  43.503  1.00  0.00    -0.507 OA
ATOM     20  H   UNL     1      90.047  49.138  43.287  1.00  0.00     0.293 HD
ENDBRANCH   3  19
BRANCH   8  21
ATOM     21  C   UNL     1      85.349  53.382  46.609  1.00  0.00    -0.007 A 
ATOM     22  C   UNL     1      85.248  53.201  48.002  1.00  0.00     0.007 A 
ATOM     23  C   UNL     1      84.749  54.518  46.047  1.00  0.00     0.007 A 
ATOM     24  C   UNL     1      84.568  54.120  48.803  1.00  0.00     0.000 A 
ATOM     25  C   UNL     1      84.068  55.439  46.850  1.00  0.00     0.000 A 
ATOM     26  C   UNL     1      83.979  55.241  48.226  1.00  0.00     0.000 A 
ENDBRANCH   8  21
TORSDOF 5
ENDMDL
