MODEL 1
REMARK VINA RESULT:   -10.710      0.000      0.000
REMARK INTER + INTRA:         -14.225
REMARK INTER:                 -13.321
REMARK INTRA:                  -0.904
REMARK UNBOUND:                -0.698
REMARK SMILES COc1ccc([C@@H]2CC(=O)c3c(O)c4c(c(CC=C(C)C)c3O2)OC(C)(C)C=C4)cc1
REMARK SMILES IDX 7 1 8 2 9 3 10 4 11 5 22 6 23 7 16 8 15 9 14 10 12 11 29 12
REMARK SMILES IDX 28 13 25 14 24 15 26 16 27 17 6 18 3 19 4 20 31 21 5 22
REMARK SMILES IDX 30 23 2 24 1 25 17 26 18 27 19 28 20 29 21 30 13 31
REMARK H PARENT 13 32
ROOT
ATOM      1  C   UNL     1      83.250  46.841  43.015  1.00  0.00     0.211 C 
ATOM      2  C   UNL     1      83.422  45.357  43.287  1.00  0.00     0.131 C 
ATOM      3  C   UNL     1      84.733  44.933  42.694  1.00  0.00     0.174 C 
ATOM      4  O   UNL     1      84.930  43.800  42.261  1.00  0.00    -0.294 OA
ATOM      5  C   UNL     1      85.831  45.922  42.701  1.00  0.00     0.103 A 
ATOM      6  C   UNL     1      85.565  47.208  43.184  1.00  0.00     0.142 A 
ATOM      7  O   UNL     1      84.318  47.586  43.619  1.00  0.00    -0.484 OA
ATOM      8  C   UNL     1      86.593  48.163  43.275  1.00  0.00     0.042 A 
ATOM      9  C   UNL     1      87.892  47.801  42.859  1.00  0.00     0.138 A 
ATOM     10  C   UNL     1      88.157  46.522  42.343  1.00  0.00     0.060 A 
ATOM     11  C   UNL     1      87.119  45.583  42.269  1.00  0.00     0.141 A 
ATOM     12  C   UNL     1      89.506  46.203  41.883  1.00  0.00     0.015 C 
ATOM     13  C   UNL     1      90.481  47.087  42.111  1.00  0.00     0.021 C 
ATOM     14  C   UNL     1      90.242  48.401  42.810  1.00  0.00     0.122 C 
ATOM     15  O   UNL     1      88.857  48.771  42.951  1.00  0.00    -0.483 OA
ATOM     16  C   UNL     1      90.854  48.357  44.216  1.00  0.00     0.061 C 
ATOM     17  C   UNL     1      90.893  49.529  42.001  1.00  0.00     0.061 C 
ENDROOT
BRANCH   1  18
ATOM     18  C   UNL     1      81.929  47.336  43.574  1.00  0.00    -0.007 A 
ATOM     19  C   UNL     1      79.468  48.301  44.565  1.00  0.00     0.118 A 
ATOM     20  C   UNL     1      79.646  46.942  44.307  1.00  0.00     0.047 A 
ATOM     21  C   UNL     1      80.522  49.182  44.323  1.00  0.00     0.047 A 
ATOM     22  C   UNL     1      80.861  46.460  43.815  1.00  0.00     0.011 A 
ATOM     23  C   UNL     1      81.742  48.703  43.830  1.00  0.00     0.011 A 
BRANCH  19  24
ATOM     24  O   UNL     1      78.232  48.637  45.043  1.00  0.00    -0.497 OA
ATOM     25  C   UNL     1      77.914  50.022  45.088  1.00  0.00     0.278 C 
ENDBRANCH  19  24
ENDBRANCH   1  18
BRANCH   8  26
ATOM     26  C   UNL     1      86.314  49.547  43.831  1.00  0.00     0.070 C 
BRANCH  26  27
ATOM     27  C   UNL     1      86.415  49.591  45.334  1.00  0.00    -0.023 C 
ATOM     28  C   UNL     1      86.939  50.558  46.111  1.00  0.00    -0.080 C 
ATOM     29  C   UNL     1      86.924  50.425  47.613  1.00  0.00     0.039 C 
ATOM     30  C   UNL     1      87.573  51.828  45.614  1.00  0.00     0.039 C 
ENDBRANCH  26  27
ENDBRANCH   8  26
BRANCH  11  31
ATOM     31  O   UNL     1      87.404  44.331  41.775  1.00  0.00    -0.506 OA
ATOM     32  H   UNL     1      88.069  43.904  42.361  1.00  0.00     0.293 HD
ENDBRANCH  11  31
TORSDOF 5
ENDMDL
MODEL 2
REMARK VINA RESULT:   -10.502      1.161      1.703
REMARK INTER + INTRA:         -13.962
REMARK INTER:                 -12.774
REMARK INTRA:                  -1.188
REMARK UNBOUND:                -0.698
REMARK SMILES COc1ccc([C@@H]2CC(=O)c3c(O)c4c(c(CC=C(C)C)c3O2)OC(C)(C)C=C4)cc1
REMARK SMILES IDX 7 1 8 2 9 3 10 4 11 5 22 6 23 7 16 8 15 9 14 10 12 11 29 12
REMARK SMILES IDX 28 13 25 14 24 15 26 16 27 17 6 18 3 19 4 20 31 21 5 22
REMARK SMILES IDX 30 23 2 24 1 25 17 26 18 27 19 28 20 29 21 30 13 31
REMARK H PARENT 13 32
ROOT
ATOM      1  C   UNL     1      83.255  47.096  43.173  1.00  0.00     0.211 C 
ATOM      2  C   UNL     1      83.414  45.631  43.540  1.00  0.00     0.131 C 
ATOM      3  C   UNL     1      84.690  45.141  42.923  1.00  0.00     0.174 C 
ATOM      4  O   UNL     1      84.849  43.977  42.562  1.00  0.00    -0.294 OA
ATOM      5  C   UNL     1      85.804  46.107  42.814  1.00  0.00     0.103 A 
ATOM      6  C   UNL     1      85.581  47.427  43.217  1.00  0.00     0.142 A 
ATOM      7  O   UNL     1      84.361  47.859  43.677  1.00  0.00    -0.484 OA
ATOM      8  C   UNL     1      86.628  48.366  43.196  1.00  0.00     0.042 A 
ATOM      9  C   UNL     1      87.902  47.950  42.752  1.00  0.00     0.138 A 
ATOM     10  C   UNL     1      88.122  46.634  42.315  1.00  0.00     0.060 A 
ATOM     11  C   UNL     1      87.065  45.712  42.352  1.00  0.00     0.141 A 
ATOM     12  C   UNL     1      89.443  46.257  41.823  1.00  0.00     0.015 C 
ATOM     13  C   UNL     1      90.442  47.135  41.946  1.00  0.00     0.021 C 
ATOM     14  C   UNL     1      90.257  48.498  42.561  1.00  0.00     0.122 C 
ATOM     15  O   UNL     1      88.886  48.905  42.735  1.00  0.00    -0.483 OA
ATOM     16  C   UNL     1      90.929  48.539  43.939  1.00  0.00     0.061 C 
ATOM     17  C   UNL     1      90.890  49.555  41.648  1.00  0.00     0.061 C 
ENDROOT
BRANCH   1  18
ATOM     18  C   UNL     1      81.968  47.654  43.752  1.00  0.00    -0.007 A 
ATOM     19  C   UNL     1      79.557  48.712  44.768  1.00  0.00     0.118 A 
ATOM     20  C   UNL     1      79.924  47.395  45.041  1.00  0.00     0.047 A 
ATOM     21  C   UNL     1      80.394  49.503  43.981  1.00  0.00     0.047 A 
ATOM     22  C   UNL     1      81.117  46.866  44.539  1.00  0.00     0.011 A 
ATOM     23  C   UNL     1      81.590  48.977  43.476  1.00  0.00     0.011 A 
BRANCH  19  24
ATOM     24  O   UNL     1      78.368  49.101  45.320  1.00  0.00    -0.497 OA
ATOM     25  C   UNL     1      77.762  50.271  44.785  1.00  0.00     0.278 C 
ENDBRANCH  19  24
ENDBRANCH   1  18
BRANCH   8  26
ATOM     26  C   UNL     1      86.398  49.790  43.666  1.00  0.00     0.070 C 
BRANCH  26  27
ATOM     27  C   UNL     1      85.562  50.585  42.696  1.00  0.00    -0.023 C 
ATOM     28  C   UNL     1      84.527  51.407  42.957  1.00  0.00    -0.080 C 
ATOM     29  C   UNL     1      83.829  52.137  41.839  1.00  0.00     0.039 C 
ATOM     30  C   UNL     1      83.963  51.690  44.321  1.00  0.00     0.039 C 
ENDBRANCH  26  27
ENDBRANCH   8  26
BRANCH  11  31
ATOM     31  O   UNL     1      87.308  44.424  41.935  1.00  0.00    -0.506 OA
ATOM     32  H   UNL     1      86.790  43.807  42.499  1.00  0.00     0.293 HD
ENDBRANCH  11  31
TORSDOF 5
ENDMDL
MODEL 3
REMARK VINA RESULT:   -10.162      3.699      7.092
REMARK INTER + INTRA:         -13.533
REMARK INTER:                 -12.497
REMARK INTRA:                  -1.036
REMARK UNBOUND:                -0.698
REMARK SMILES COc1ccc([C@@H]2CC(=O)c3c(O)c4c(c(CC=C(C)C)c3O2)OC(C)(C)C=C4)cc1
REMARK SMILES IDX 7 1 8 2 9 3 10 4 11 5 22 6 23 7 16 8 15 9 14 10 12 11 29 12
REMARK SMILES IDX 28 13 25 14 24 15 26 16 27 17 6 18 3 19 4 20 31 21 5 22
REMARK SMILES IDX 30 23 2 24 1 25 17 26 18 27 19 28 20 29 21 30 13 31
REMARK H PARENT 13 32
ROOT
ATOM      1  C   UNL     1      87.000  53.121  42.970  1.00  0.00     0.211 C 
ATOM      2  C   UNL     1      87.661  53.063  41.604  1.00  0.00     0.131 C 
ATOM      3  C   UNL     1      88.210  51.679  41.420  1.00  0.00     0.174 C 
ATOM      4  O   UNL     1      89.210  51.446  40.745  1.00  0.00    -0.294 OA
ATOM      5  C   UNL     1      87.461  50.566  42.040  1.00  0.00     0.103 A 
ATOM      6  C   UNL     1      86.339  50.871  42.818  1.00  0.00     0.142 A 
ATOM      7  O   UNL     1      85.934  52.163  43.049  1.00  0.00    -0.484 OA
ATOM      8  C   UNL     1      85.554  49.843  43.372  1.00  0.00     0.042 A 
ATOM      9  C   UNL     1      85.928  48.503  43.134  1.00  0.00     0.138 A 
ATOM     10  C   UNL     1      87.072  48.192  42.381  1.00  0.00     0.060 A 
ATOM     11  C   UNL     1      87.836  49.233  41.832  1.00  0.00     0.141 A 
ATOM     12  C   UNL     1      87.448  46.794  42.197  1.00  0.00     0.015 C 
ATOM     13  C   UNL     1      86.606  45.848  42.622  1.00  0.00     0.021 C 
ATOM     14  C   UNL     1      85.293  46.167  43.291  1.00  0.00     0.122 C 
ATOM     15  O   UNL     1      85.142  47.537  43.709  1.00  0.00    -0.483 OA
ATOM     16  C   UNL     1      84.136  45.843  42.339  1.00  0.00     0.061 C 
ATOM     17  C   UNL     1      85.160  45.327  44.567  1.00  0.00     0.061 C 
ENDROOT
BRANCH   1  18
ATOM     18  C   UNL     1      86.436  54.505  43.231  1.00  0.00    -0.007 A 
ATOM     19  C   UNL     1      85.330  57.052  43.741  1.00  0.00     0.118 A 
ATOM     20  C   UNL     1      86.573  56.699  44.267  1.00  0.00     0.047 A 
ATOM     21  C   UNL     1      84.635  56.127  42.961  1.00  0.00     0.047 A 
ATOM     22  C   UNL     1      87.124  55.439  44.019  1.00  0.00     0.011 A 
ATOM     23  C   UNL     1      85.183  54.863  42.710  1.00  0.00     0.011 A 
BRANCH  19  24
ATOM     24  O   UNL     1      84.910  58.313  44.061  1.00  0.00    -0.497 OA
ATOM     25  C   UNL     1      84.909  58.660  45.440  1.00  0.00     0.278 C 
ENDBRANCH  19  24
ENDBRANCH   1  18
BRANCH   8  26
ATOM     26  C   UNL     1      84.318  50.170  44.187  1.00  0.00     0.070 C 
BRANCH  26  27
ATOM     27  C   UNL     1      83.121  50.462  43.319  1.00  0.00    -0.023 C 
ATOM     28  C   UNL     1      81.980  49.755  43.198  1.00  0.00    -0.080 C 
ATOM     29  C   UNL     1      80.879  50.230  42.285  1.00  0.00     0.039 C 
ATOM     30  C   UNL     1      81.671  48.471  43.916  1.00  0.00     0.039 C 
ENDBRANCH  26  27
ENDBRANCH   8  26
BRANCH  11  31
ATOM     31  O   UNL     1      88.943  48.906  41.084  1.00  0.00    -0.506 OA
ATOM     32  H   UNL     1      89.024  49.546  40.342  1.00  0.00     0.293 HD
ENDBRANCH  11  31
TORSDOF 5
ENDMDL
MODEL 4
REMARK VINA RESULT:    -9.898      3.192      7.178
REMARK INTER + INTRA:         -13.199
REMARK INTER:                 -12.394
REMARK INTRA:                  -0.806
REMARK UNBOUND:                -0.698
REMARK SMILES COc1ccc([C@@H]2CC(=O)c3c(O)c4c(c(CC=C(C)C)c3O2)OC(C)(C)C=C4)cc1
REMARK SMILES IDX 7 1 8 2 9 3 10 4 11 5 22 6 23 7 16 8 15 9 14 10 12 11 29 12
REMARK SMILES IDX 28 13 25 14 24 15 26 16 27 17 6 18 3 19 4 20 31 21 5 22
REMARK SMILES IDX 30 23 2 24 1 25 17 26 18 27 19 28 20 29 21 30 13 31
REMARK H PARENT 13 32
ROOT
ATOM      1  C   UNL     1      87.020  50.052  41.847  1.00  0.00     0.211 C 
ATOM      2  C   UNL     1      86.180  50.451  43.047  1.00  0.00     0.131 C 
ATOM      3  C   UNL     1      85.363  49.260  43.450  1.00  0.00     0.174 C 
ATOM      4  O   UNL     1      84.255  49.361  43.971  1.00  0.00    -0.294 OA
ATOM      5  C   UNL     1      85.969  47.926  43.255  1.00  0.00     0.103 A 
ATOM      6  C   UNL     1      87.223  47.849  42.640  1.00  0.00     0.142 A 
ATOM      7  O   UNL     1      87.890  48.962  42.188  1.00  0.00    -0.484 OA
ATOM      8  C   UNL     1      87.871  46.609  42.494  1.00  0.00     0.042 A 
ATOM      9  C   UNL     1      87.225  45.447  42.970  1.00  0.00     0.138 A 
ATOM     10  C   UNL     1      85.952  45.516  43.557  1.00  0.00     0.060 A 
ATOM     11  C   UNL     1      85.327  46.764  43.700  1.00  0.00     0.141 A 
ATOM     12  C   UNL     1      85.301  44.285  43.995  1.00  0.00     0.015 C 
ATOM     13  C   UNL     1      86.002  43.149  43.963  1.00  0.00     0.021 C 
ATOM     14  C   UNL     1      87.430  43.086  43.484  1.00  0.00     0.122 C 
ATOM     15  O   UNL     1      87.889  44.261  42.789  1.00  0.00    -0.483 OA
ATOM     16  C   UNL     1      88.366  42.858  44.677  1.00  0.00     0.061 C 
ATOM     17  C   UNL     1      87.577  41.930  42.487  1.00  0.00     0.061 C 
ENDROOT
BRANCH   1  18
ATOM     18  C   UNL     1      87.863  51.221  41.372  1.00  0.00    -0.007 A 
ATOM     19  C   UNL     1      89.470  53.387  40.540  1.00  0.00     0.118 A 
ATOM     20  C   UNL     1      89.165  52.350  39.659  1.00  0.00     0.047 A 
ATOM     21  C   UNL     1      88.975  53.339  41.843  1.00  0.00     0.047 A 
ATOM     22  C   UNL     1      88.371  51.275  40.067  1.00  0.00     0.011 A 
ATOM     23  C   UNL     1      88.179  52.264  42.256  1.00  0.00     0.011 A 
BRANCH  19  24
ATOM     24  O   UNL     1      90.255  54.374  40.012  1.00  0.00    -0.497 OA
ATOM     25  C   UNL     1      91.290  53.968  39.126  1.00  0.00     0.278 C 
ENDBRANCH  19  24
ENDBRANCH   1  18
BRANCH   8  26
ATOM     26  C   UNL     1      89.247  46.527  41.860  1.00  0.00     0.070 C 
BRANCH  26  27
ATOM     27  C   UNL     1      90.319  47.114  42.740  1.00  0.00    -0.023 C 
ATOM     28  C   UNL     1      91.031  48.244  42.555  1.00  0.00    -0.080 C 
ATOM     29  C   UNL     1      92.054  48.678  43.574  1.00  0.00     0.039 C 
ATOM     30  C   UNL     1      90.907  49.169  41.377  1.00  0.00     0.039 C 
ENDBRANCH  26  27
ENDBRANCH   8  26
BRANCH  11  31
ATOM     31  O   UNL     1      84.087  46.809  44.293  1.00  0.00    -0.506 OA
ATOM     32  H   UNL     1      83.773  47.741  44.297  1.00  0.00     0.293 HD
ENDBRANCH  11  31
TORSDOF 5
ENDMDL
MODEL 5
REMARK VINA RESULT:    -9.881      3.773      7.084
REMARK INTER + INTRA:         -13.178
REMARK INTER:                 -12.222
REMARK INTRA:                  -0.956
REMARK UNBOUND:                -0.698
REMARK SMILES COc1ccc([C@@H]2CC(=O)c3c(O)c4c(c(CC=C(C)C)c3O2)OC(C)(C)C=C4)cc1
REMARK SMILES IDX 7 1 8 2 9 3 10 4 11 5 22 6 23 7 16 8 15 9 14 10 12 11 29 12
REMARK SMILES IDX 28 13 25 14 24 15 26 16 27 17 6 18 3 19 4 20 31 21 5 22
REMARK SMILES IDX 30 23 2 24 1 25 17 26 18 27 19 28 20 29 21 30 13 31
REMARK H PARENT 13 32
ROOT
ATOM      1  C   UNL     1      87.286  48.463  42.033  1.00  0.00     0.211 C 
ATOM      2  C   UNL     1      88.448  49.020  41.228  1.00  0.00     0.131 C 
ATOM      3  C   UNL     1      88.192  50.481  41.009  1.00  0.00     0.174 C 
ATOM      4  O   UNL     1      88.590  51.082  40.013  1.00  0.00    -0.294 OA
ATOM      5  C   UNL     1      87.484  51.213  42.080  1.00  0.00     0.103 A 
ATOM      6  C   UNL     1      87.028  50.492  43.189  1.00  0.00     0.142 A 
ATOM      7  O   UNL     1      87.190  49.133  43.298  1.00  0.00    -0.484 OA
ATOM      8  C   UNL     1      86.410  51.154  44.265  1.00  0.00     0.042 A 
ATOM      9  C   UNL     1      86.249  52.555  44.196  1.00  0.00     0.138 A 
ATOM     10  C   UNL     1      86.675  53.278  43.070  1.00  0.00     0.060 A 
ATOM     11  C   UNL     1      87.296  52.599  42.012  1.00  0.00     0.141 A 
ATOM     12  C   UNL     1      86.450  54.720  43.021  1.00  0.00     0.015 C 
ATOM     13  C   UNL     1      85.984  55.328  44.115  1.00  0.00     0.021 C 
ATOM     14  C   UNL     1      85.673  54.586  45.390  1.00  0.00     0.122 C 
ATOM     15  O   UNL     1      85.626  53.152  45.261  1.00  0.00    -0.483 OA
ATOM     16  C   UNL     1      86.726  54.921  46.453  1.00  0.00     0.061 C 
ATOM     17  C   UNL     1      84.285  55.003  45.891  1.00  0.00     0.061 C 
ENDROOT
BRANCH   1  18
ATOM     18  C   UNL     1      87.470  46.977  42.277  1.00  0.00    -0.007 A 
ATOM     19  C   UNL     1      87.861  44.226  42.775  1.00  0.00     0.118 A 
ATOM     20  C   UNL     1      86.592  44.794  42.886  1.00  0.00     0.047 A 
ATOM     21  C   UNL     1      88.939  45.035  42.418  1.00  0.00     0.047 A 
ATOM     22  C   UNL     1      86.394  46.156  42.642  1.00  0.00     0.011 A 
ATOM     23  C   UNL     1      88.746  46.400  42.173  1.00  0.00     0.011 A 
BRANCH  19  24
ATOM     24  O   UNL     1      87.913  42.886  43.041  1.00  0.00    -0.497 OA
ATOM     25  C   UNL     1      88.301  42.505  44.355  1.00  0.00     0.278 C 
ENDBRANCH  19  24
ENDBRANCH   1  18
BRANCH   8  26
ATOM     26  C   UNL     1      85.947  50.379  45.484  1.00  0.00     0.070 C 
BRANCH  26  27
ATOM     27  C   UNL     1      87.088  50.012  46.397  1.00  0.00    -0.023 C 
ATOM     28  C   UNL     1      87.334  50.445  47.649  1.00  0.00    -0.080 C 
ATOM     29  C   UNL     1      88.529  49.936  48.413  1.00  0.00     0.039 C 
ATOM     30  C   UNL     1      86.497  51.437  48.407  1.00  0.00     0.039 C 
ENDBRANCH  26  27
ENDBRANCH   8  26
BRANCH  11  31
ATOM     31  O   UNL     1      87.721  53.330  40.926  1.00  0.00    -0.506 OA
ATOM     32  H   UNL     1      87.324  54.228  40.976  1.00  0.00     0.293 HD
ENDBRANCH  11  31
TORSDOF 5
ENDMDL
MODEL 6
REMARK VINA RESULT:    -9.468      2.835      7.343
REMARK INTER + INTRA:         -12.657
REMARK INTER:                 -11.853
REMARK INTRA:                  -0.804
REMARK UNBOUND:                -0.698
REMARK SMILES COc1ccc([C@@H]2CC(=O)c3c(O)c4c(c(CC=C(C)C)c3O2)OC(C)(C)C=C4)cc1
REMARK SMILES IDX 7 1 8 2 9 3 10 4 11 5 22 6 23 7 16 8 15 9 14 10 12 11 29 12
REMARK SMILES IDX 28 13 25 14 24 15 26 16 27 17 6 18 3 19 4 20 31 21 5 22
REMARK SMILES IDX 30 23 2 24 1 25 17 26 18 27 19 28 20 29 21 30 13 31
REMARK H PARENT 13 32
ROOT
ATOM      1  C   UNL     1      87.780  48.625  42.034  1.00  0.00     0.211 C 
ATOM      2  C   UNL     1      89.132  49.122  41.552  1.00  0.00     0.131 C 
ATOM      3  C   UNL     1      89.029  50.604  41.351  1.00  0.00     0.174 C 
ATOM      4  O   UNL     1      89.689  51.207  40.507  1.00  0.00    -0.294 OA
ATOM      5  C   UNL     1      88.134  51.351  42.260  1.00  0.00     0.103 A 
ATOM      6  C   UNL     1      87.384  50.630  43.195  1.00  0.00     0.142 A 
ATOM      7  O   UNL     1      87.428  49.259  43.273  1.00  0.00    -0.484 OA
ATOM      8  C   UNL     1      86.570  51.300  44.127  1.00  0.00     0.042 A 
ATOM      9  C   UNL     1      86.520  52.710  44.091  1.00  0.00     0.138 A 
ATOM     10  C   UNL     1      87.245  53.436  43.133  1.00  0.00     0.060 A 
ATOM     11  C   UNL     1      88.056  52.748  42.218  1.00  0.00     0.141 A 
ATOM     12  C   UNL     1      87.130  54.891  43.103  1.00  0.00     0.015 C 
ATOM     13  C   UNL     1      86.457  55.496  44.085  1.00  0.00     0.021 C 
ATOM     14  C   UNL     1      85.806  54.738  45.214  1.00  0.00     0.122 C 
ATOM     15  O   UNL     1      85.700  53.316  45.008  1.00  0.00    -0.483 OA
ATOM     16  C   UNL     1      86.595  54.960  46.510  1.00  0.00     0.061 C 
ATOM     17  C   UNL     1      84.368  55.239  45.395  1.00  0.00     0.061 C 
ENDROOT
BRANCH   1  18
ATOM     18  C   UNL     1      87.806  47.123  42.241  1.00  0.00    -0.007 A 
ATOM     19  C   UNL     1      87.902  44.335  42.674  1.00  0.00     0.118 A 
ATOM     20  C   UNL     1      86.690  45.022  42.739  1.00  0.00     0.047 A 
ATOM     21  C   UNL     1      89.071  45.043  42.396  1.00  0.00     0.047 A 
ATOM     22  C   UNL     1      86.638  46.403  42.527  1.00  0.00     0.011 A 
ATOM     23  C   UNL     1      89.024  46.426  42.183  1.00  0.00     0.011 A 
BRANCH  19  24
ATOM     24  O   UNL     1      87.810  42.990  42.901  1.00  0.00    -0.497 OA
ATOM     25  C   UNL     1      88.213  42.525  44.183  1.00  0.00     0.278 C 
ENDBRANCH  19  24
ENDBRANCH   1  18
BRANCH   8  26
ATOM     26  C   UNL     1      85.783  50.521  45.164  1.00  0.00     0.070 C 
BRANCH  26  27
ATOM     27  C   UNL     1      84.837  49.529  44.539  1.00  0.00    -0.023 C 
ATOM     28  C   UNL     1      83.731  49.770  43.807  1.00  0.00    -0.080 C 
ATOM     29  C   UNL     1      82.923  48.629  43.244  1.00  0.00     0.039 C 
ATOM     30  C   UNL     1      83.187  51.131  43.473  1.00  0.00     0.039 C 
ENDBRANCH  26  27
ENDBRANCH   8  26
BRANCH  11  31
ATOM     31  O   UNL     1      88.772  53.481  41.300  1.00  0.00    -0.506 OA
ATOM     32  H   UNL     1      89.647  53.053  41.167  1.00  0.00     0.293 HD
ENDBRANCH  11  31
TORSDOF 5
ENDMDL
MODEL 7
REMARK VINA RESULT:    -9.407      2.421      7.595
REMARK INTER + INTRA:         -12.580
REMARK INTER:                 -11.434
REMARK INTRA:                  -1.146
REMARK UNBOUND:                -0.698
REMARK SMILES COc1ccc([C@@H]2CC(=O)c3c(O)c4c(c(CC=C(C)C)c3O2)OC(C)(C)C=C4)cc1
REMARK SMILES IDX 7 1 8 2 9 3 10 4 11 5 22 6 23 7 16 8 15 9 14 10 12 11 29 12
REMARK SMILES IDX 28 13 25 14 24 15 26 16 27 17 6 18 3 19 4 20 31 21 5 22
REMARK SMILES IDX 30 23 2 24 1 25 17 26 18 27 19 28 20 29 21 30 13 31
REMARK H PARENT 13 32
ROOT
ATOM      1  C   UNL     1      87.164  49.104  42.821  1.00  0.00     0.211 C 
ATOM      2  C   UNL     1      87.281  47.802  42.048  1.00  0.00     0.131 C 
ATOM      3  C   UNL     1      86.277  46.844  42.615  1.00  0.00     0.174 C 
ATOM      4  O   UNL     1      86.453  45.627  42.623  1.00  0.00    -0.294 OA
ATOM      5  C   UNL     1      85.010  47.410  43.121  1.00  0.00     0.103 A 
ATOM      6  C   UNL     1      84.853  48.800  43.114  1.00  0.00     0.142 A 
ATOM      7  O   UNL     1      85.844  49.649  42.684  1.00  0.00    -0.484 OA
ATOM      8  C   UNL     1      83.639  49.383  43.521  1.00  0.00     0.042 A 
ATOM      9  C   UNL     1      82.591  48.539  43.945  1.00  0.00     0.138 A 
ATOM     10  C   UNL     1      82.755  47.145  43.986  1.00  0.00     0.060 A 
ATOM     11  C   UNL     1      83.971  46.584  43.568  1.00  0.00     0.141 A 
ATOM     12  C   UNL     1      81.661  46.311  44.473  1.00  0.00     0.015 C 
ATOM     13  C   UNL     1      80.483  46.889  44.721  1.00  0.00     0.021 C 
ATOM     14  C   UNL     1      80.243  48.365  44.529  1.00  0.00     0.122 C 
ATOM     15  O   UNL     1      81.434  49.155  44.348  1.00  0.00    -0.483 OA
ATOM     16  C   UNL     1      79.350  48.588  43.302  1.00  0.00     0.061 C 
ATOM     17  C   UNL     1      79.555  48.932  45.776  1.00  0.00     0.061 C 
ENDROOT
BRANCH   1  18
ATOM     18  C   UNL     1      88.169  50.120  42.310  1.00  0.00    -0.007 A 
ATOM     19  C   UNL     1      90.042  51.977  41.303  1.00  0.00     0.118 A 
ATOM     20  C   UNL     1      88.818  52.409  41.814  1.00  0.00     0.047 A 
ATOM     21  C   UNL     1      90.330  50.612  41.291  1.00  0.00     0.047 A 
ATOM     22  C   UNL     1      87.887  51.494  42.312  1.00  0.00     0.011 A 
ATOM     23  C   UNL     1      89.400  49.691  41.789  1.00  0.00     0.011 A 
BRANCH  19  24
ATOM     24  O   UNL     1      90.858  52.975  40.849  1.00  0.00    -0.497 OA
ATOM     25  C   UNL     1      90.489  53.601  39.626  1.00  0.00     0.278 C 
ENDBRANCH  19  24
ENDBRANCH   1  18
BRANCH   8  26
ATOM     26  C   UNL     1      83.455  50.888  43.481  1.00  0.00     0.070 C 
BRANCH  26  27
ATOM     27  C   UNL     1      84.104  51.577  44.654  1.00  0.00    -0.023 C 
ATOM     28  C   UNL     1      84.763  52.752  44.677  1.00  0.00    -0.080 C 
ATOM     29  C   UNL     1      85.326  53.287  45.968  1.00  0.00     0.039 C 
ATOM     30  C   UNL     1      85.009  53.636  43.486  1.00  0.00     0.039 C 
ENDBRANCH  26  27
ENDBRANCH   8  26
BRANCH  11  31
ATOM     31  O   UNL     1      84.104  45.215  43.599  1.00  0.00    -0.506 OA
ATOM     32  H   UNL     1      83.211  44.812  43.679  1.00  0.00     0.293 HD
ENDBRANCH  11  31
TORSDOF 5
ENDMDL
MODEL 8
REMARK VINA RESULT:    -9.217      2.946      6.335
REMARK INTER + INTRA:         -12.340
REMARK INTER:                 -11.642
REMARK INTRA:                  -0.698
REMARK UNBOUND:                -0.698
REMARK SMILES COc1ccc([C@@H]2CC(=O)c3c(O)c4c(c(CC=C(C)C)c3O2)OC(C)(C)C=C4)cc1
REMARK SMILES IDX 7 1 8 2 9 3 10 4 11 5 22 6 23 7 16 8 15 9 14 10 12 11 29 12
REMARK SMILES IDX 28 13 25 14 24 15 26 16 27 17 6 18 3 19 4 20 31 21 5 22
REMARK SMILES IDX 30 23 2 24 1 25 17 26 18 27 19 28 20 29 21 30 13 31
REMARK H PARENT 13 32
ROOT
ATOM      1  C   UNL     1      84.779  51.440  43.325  1.00  0.00     0.211 C 
ATOM      2  C   UNL     1      83.548  51.237  44.190  1.00  0.00     0.131 C 
ATOM      3  C   UNL     1      82.994  49.877  43.884  1.00  0.00     0.174 C 
ATOM      4  O   UNL     1      81.796  49.615  43.964  1.00  0.00    -0.294 OA
ATOM      5  C   UNL     1      83.960  48.815  43.535  1.00  0.00     0.103 A 
ATOM      6  C   UNL     1      85.314  49.154  43.435  1.00  0.00     0.142 A 
ATOM      7  O   UNL     1      85.765  50.439  43.618  1.00  0.00    -0.484 OA
ATOM      8  C   UNL     1      86.280  48.165  43.172  1.00  0.00     0.042 A 
ATOM      9  C   UNL     1      85.853  46.831  43.003  1.00  0.00     0.138 A 
ATOM     10  C   UNL     1      84.492  46.491  43.070  1.00  0.00     0.060 A 
ATOM     11  C   UNL     1      83.547  47.491  43.340  1.00  0.00     0.141 A 
ATOM     12  C   UNL     1      84.091  45.106  42.846  1.00  0.00     0.015 C 
ATOM     13  C   UNL     1      85.044  44.177  42.734  1.00  0.00     0.021 C 
ATOM     14  C   UNL     1      86.513  44.503  42.821  1.00  0.00     0.122 C 
ATOM     15  O   UNL     1      86.829  45.906  42.733  1.00  0.00    -0.483 OA
ATOM     16  C   UNL     1      87.081  43.984  44.147  1.00  0.00     0.061 C 
ATOM     17  C   UNL     1      87.248  43.839  41.651  1.00  0.00     0.061 C 
ENDROOT
BRANCH   1  18
ATOM     18  C   UNL     1      85.384  52.810  43.569  1.00  0.00    -0.007 A 
ATOM     19  C   UNL     1      86.509  55.369  43.958  1.00  0.00     0.118 A 
ATOM     20  C   UNL     1      85.339  55.000  44.622  1.00  0.00     0.047 A 
ATOM     21  C   UNL     1      87.116  54.459  43.094  1.00  0.00     0.047 A 
ATOM     22  C   UNL     1      84.777  53.734  44.431  1.00  0.00     0.011 A 
ATOM     23  C   UNL     1      86.557  53.190  42.899  1.00  0.00     0.011 A 
BRANCH  19  24
ATOM     24  O   UNL     1      86.949  56.634  44.235  1.00  0.00    -0.497 OA
ATOM     25  C   UNL     1      85.982  57.675  44.193  1.00  0.00     0.278 C 
ENDBRANCH  19  24
ENDBRANCH   1  18
BRANCH   8  26
ATOM     26  C   UNL     1      87.751  48.525  43.098  1.00  0.00     0.070 C 
BRANCH  26  27
ATOM     27  C   UNL     1      88.032  49.577  42.056  1.00  0.00    -0.023 C 
ATOM     28  C   UNL     1      89.220  49.960  41.550  1.00  0.00    -0.080 C 
ATOM     29  C   UNL     1      89.291  51.026  40.486  1.00  0.00     0.039 C 
ATOM     30  C   UNL     1      90.559  49.409  41.955  1.00  0.00     0.039 C 
ENDBRANCH  26  27
ENDBRANCH   8  26
BRANCH  11  31
ATOM     31  O   UNL     1      82.221  47.133  43.419  1.00  0.00    -0.506 OA
ATOM     32  H   UNL     1      82.033  46.463  42.724  1.00  0.00     0.293 HD
ENDBRANCH  11  31
TORSDOF 5
ENDMDL
MODEL 9
REMARK VINA RESULT:    -9.129      2.321      4.565
REMARK INTER + INTRA:         -12.228
REMARK INTER:                 -11.530
REMARK INTRA:                  -0.698
REMARK UNBOUND:                -0.698
REMARK SMILES COc1ccc([C@@H]2CC(=O)c3c(O)c4c(c(CC=C(C)C)c3O2)OC(C)(C)C=C4)cc1
REMARK SMILES IDX 7 1 8 2 9 3 10 4 11 5 22 6 23 7 16 8 15 9 14 10 12 11 29 12
REMARK SMILES IDX 28 13 25 14 24 15 26 16 27 17 6 18 3 19 4 20 31 21 5 22
REMARK SMILES IDX 30 23 2 24 1 25 17 26 18 27 19 28 20 29 21 30 13 31
REMARK H PARENT 13 32
ROOT
ATOM      1  C   UNL     1      83.308  50.589  43.234  1.00  0.00     0.211 C 
ATOM      2  C   UNL     1      83.181  51.476  42.009  1.00  0.00     0.131 C 
ATOM      3  C   UNL     1      84.518  52.108  41.761  1.00  0.00     0.174 C 
ATOM      4  O   UNL     1      84.643  53.218  41.249  1.00  0.00    -0.294 OA
ATOM      5  C   UNL     1      85.716  51.313  42.103  1.00  0.00     0.103 A 
ATOM      6  C   UNL     1      85.536  50.063  42.703  1.00  0.00     0.142 A 
ATOM      7  O   UNL     1      84.292  49.568  43.011  1.00  0.00    -0.484 OA
ATOM      8  C   UNL     1      86.642  49.240  42.984  1.00  0.00     0.042 A 
ATOM      9  C   UNL     1      87.933  49.707  42.658  1.00  0.00     0.138 A 
ATOM     10  C   UNL     1      88.122  50.976  42.086  1.00  0.00     0.060 A 
ATOM     11  C   UNL     1      87.004  51.776  41.807  1.00  0.00     0.141 A 
ATOM     12  C   UNL     1      89.478  51.438  41.806  1.00  0.00     0.015 C 
ATOM     13  C   UNL     1      90.487  50.578  41.960  1.00  0.00     0.021 C 
ATOM     14  C   UNL     1      90.284  49.157  42.422  1.00  0.00     0.122 C 
ATOM     15  O   UNL     1      88.980  48.877  42.966  1.00  0.00    -0.483 OA
ATOM     16  C   UNL     1      90.512  48.195  41.250  1.00  0.00     0.061 C 
ATOM     17  C   UNL     1      91.279  48.844  43.546  1.00  0.00     0.061 C 
ENDROOT
BRANCH   1  18
ATOM     18  C   UNL     1      81.981  49.928  43.555  1.00  0.00    -0.007 A 
ATOM     19  C   UNL     1      79.494  48.702  44.089  1.00  0.00     0.118 A 
ATOM     20  C   UNL     1      80.684  48.110  44.513  1.00  0.00     0.047 A 
ATOM     21  C   UNL     1      79.547  49.909  43.391  1.00  0.00     0.047 A 
ATOM     22  C   UNL     1      81.917  48.712  44.250  1.00  0.00     0.011 A 
ATOM     23  C   UNL     1      80.781  50.516  43.125  1.00  0.00     0.011 A 
BRANCH  19  24
ATOM     24  O   UNL     1      78.362  48.008  44.412  1.00  0.00    -0.497 OA
ATOM     25  C   UNL     1      78.405  46.596  44.250  1.00  0.00     0.278 C 
ENDBRANCH  19  24
ENDBRANCH   1  18
BRANCH   8  26
ATOM     26  C   UNL     1      86.446  47.869  43.602  1.00  0.00     0.070 C 
BRANCH  26  27
ATOM     27  C   UNL     1      86.845  46.756  42.667  1.00  0.00    -0.023 C 
ATOM     28  C   UNL     1      86.649  45.431  42.809  1.00  0.00    -0.080 C 
ATOM     29  C   UNL     1      87.107  44.472  41.740  1.00  0.00     0.039 C 
ATOM     30  C   UNL     1      85.986  44.769  43.984  1.00  0.00     0.039 C 
ENDBRANCH  26  27
ENDBRANCH   8  26
BRANCH  11  31
ATOM     31  O   UNL     1      87.211  53.009  41.231  1.00  0.00    -0.506 OA
ATOM     32  H   UNL     1      86.823  53.004  40.328  1.00  0.00     0.293 HD
ENDBRANCH  11  31
TORSDOF 5
ENDMDL
