MODEL 1
REMARK VINA RESULT:    -6.278      0.000      0.000
REMARK INTER + INTRA:          -7.271
REMARK INTER:                  -7.718
REMARK INTRA:                   0.447
REMARK UNBOUND:                -0.259
REMARK SMILES CC(=O)O[C@H]1CC[C@]2(C)[C@H]3CC=C4[C@@H]5CC(C)(C)CC[C@]5(C)CC[C@@]4(C)[C@]3(C)CC[C@H]2C1(C)C
REMARK SMILES IDX 4 1 2 2 3 3 1 4 5 5 6 6 32 7 7 8 31 9 8 10 30 11 10 12 29 13
REMARK SMILES IDX 27 14 11 15 25 16 12 17 13 18 24 19 14 20 23 21 21 22 15 23
REMARK SMILES IDX 20 24 16 25 19 26 33 27 34 28 9 29 28 30 26 31 22 32 17 33
REMARK SMILES IDX 18 34
REMARK H PARENT
ROOT
ATOM      1  O   UNL     1      84.954  56.598  43.968  1.00  0.00    -0.462 OA
ENDROOT
BRANCH   1   2
ATOM      2  C   UNL     1      85.234  57.913  44.180  1.00  0.00     0.302 C 
ATOM      3  O   UNL     1      85.966  58.609  43.492  1.00  0.00    -0.253 OA
ATOM      4  C   UNL     1      84.507  58.395  45.398  1.00  0.00     0.139 C 
ENDBRANCH   1   2
BRANCH   1   5
ATOM      5  C   UNL     1      84.683  55.792  45.133  1.00  0.00     0.182 C 
ATOM      6  C   UNL     1      83.759  54.640  44.742  1.00  0.00     0.046 C 
ATOM      7  C   UNL     1      86.016  55.266  45.770  1.00  0.00     0.005 C 
ATOM      8  C   UNL     1      84.370  53.692  43.703  1.00  0.00     0.011 C 
ATOM      9  C   UNL     1      86.312  53.769  45.352  1.00  0.00     0.005 C 
ATOM     10  C   UNL     1      85.895  53.369  43.895  1.00  0.00    -0.025 C 
ATOM     11  C   UNL     1      87.741  53.295  45.686  1.00  0.00     0.005 C 
ATOM     12  C   UNL     1      86.098  51.794  43.738  1.00  0.00     0.006 C 
ATOM     13  C   UNL     1      87.869  51.774  45.573  1.00  0.00     0.008 C 
ATOM     14  C   UNL     1      87.490  51.187  44.182  1.00  0.00    -0.020 C 
ATOM     15  C   UNL     1      85.633  51.220  42.377  1.00  0.00     0.032 C 
ATOM     16  C   UNL     1      87.352  49.557  44.233  1.00  0.00    -0.006 C 
ATOM     17  C   UNL     1      85.998  49.787  42.124  1.00  0.00    -0.027 C 
ATOM     18  C   UNL     1      86.782  49.025  42.911  1.00  0.00    -0.064 C 
ATOM     19  C   UNL     1      88.698  48.828  44.561  1.00  0.00     0.012 C 
ATOM     20  C   UNL     1      87.245  47.652  42.411  1.00  0.00     0.022 C 
ATOM     21  C   UNL     1      89.545  48.296  43.392  1.00  0.00     0.008 C 
ATOM     22  C   UNL     1      88.785  47.669  42.187  1.00  0.00    -0.026 C 
ATOM     23  C   UNL     1      86.751  46.480  43.286  1.00  0.00     0.015 C 
ATOM     24  C   UNL     1      89.327  46.246  41.874  1.00  0.00     0.008 C 
ATOM     25  C   UNL     1      87.271  45.095  42.856  1.00  0.00    -0.035 C 
ATOM     26  C   UNL     1      88.809  45.150  42.799  1.00  0.00     0.007 C 
ATOM     27  C   UNL     1      87.187  56.228  45.477  1.00  0.00     0.015 C 
ATOM     28  C   UNL     1      85.814  55.288  47.314  1.00  0.00     0.015 C 
ATOM     29  C   UNL     1      86.677  54.170  42.826  1.00  0.00     0.012 C 
ATOM     30  C   UNL     1      88.619  51.584  43.197  1.00  0.00     0.012 C 
ATOM     31  C   UNL     1      86.356  49.141  45.368  1.00  0.00     0.017 C 
ATOM     32  C   UNL     1      89.118  48.512  40.924  1.00  0.00     0.012 C 
ATOM     33  C   UNL     1      86.668  44.667  41.505  1.00  0.00     0.011 C 
ATOM     34  C   UNL     1      86.851  44.050  43.909  1.00  0.00     0.011 C 
ENDBRANCH   1   5
TORSDOF 2
ENDMDL
MODEL 2
REMARK VINA RESULT:    -6.211      3.574      8.883
REMARK INTER + INTRA:          -7.196
REMARK INTER:                  -7.021
REMARK INTRA:                  -0.175
REMARK UNBOUND:                -0.259
REMARK SMILES CC(=O)O[C@H]1CC[C@]2(C)[C@H]3CC=C4[C@@H]5CC(C)(C)CC[C@]5(C)CC[C@@]4(C)[C@]3(C)CC[C@H]2C1(C)C
REMARK SMILES IDX 4 1 2 2 3 3 1 4 5 5 6 6 32 7 7 8 31 9 8 10 30 11 10 12 29 13
REMARK SMILES IDX 27 14 11 15 25 16 12 17 13 18 24 19 14 20 23 21 21 22 15 23
REMARK SMILES IDX 20 24 16 25 19 26 33 27 34 28 9 29 28 30 26 31 22 32 17 33
REMARK SMILES IDX 18 34
REMARK H PARENT
ROOT
ATOM      1  O   UNL     1      88.796  44.928  43.677  1.00  0.00    -0.462 OA
ENDROOT
BRANCH   1   2
ATOM      2  C   UNL     1      87.940  43.878  43.805  1.00  0.00     0.302 C 
ATOM      3  O   UNL     1      86.804  43.931  44.254  1.00  0.00    -0.253 OA
ATOM      4  C   UNL     1      88.597  42.626  43.313  1.00  0.00     0.139 C 
ENDBRANCH   1   2
BRANCH   1   5
ATOM      5  C   UNL     1      89.036  45.416  42.341  1.00  0.00     0.182 C 
ATOM      6  C   UNL     1      87.696  45.703  41.664  1.00  0.00     0.046 C 
ATOM      7  C   UNL     1      89.949  46.691  42.368  1.00  0.00     0.005 C 
ATOM      8  C   UNL     1      86.874  46.788  42.370  1.00  0.00     0.011 C 
ATOM      9  C   UNL     1      89.102  48.019  42.223  1.00  0.00     0.005 C 
ATOM     10  C   UNL     1      87.694  48.013  42.913  1.00  0.00    -0.025 C 
ATOM     11  C   UNL     1      89.890  49.304  42.547  1.00  0.00     0.005 C 
ATOM     12  C   UNL     1      86.933  49.351  42.493  1.00  0.00     0.006 C 
ATOM     13  C   UNL     1      89.143  50.554  42.076  1.00  0.00     0.008 C 
ATOM     14  C   UNL     1      87.710  50.720  42.661  1.00  0.00    -0.020 C 
ATOM     15  C   UNL     1      85.479  49.453  43.015  1.00  0.00     0.032 C 
ATOM     16  C   UNL     1      86.872  51.890  41.882  1.00  0.00    -0.006 C 
ATOM     17  C   UNL     1      84.813  50.782  42.809  1.00  0.00    -0.027 C 
ATOM     18  C   UNL     1      85.406  51.894  42.335  1.00  0.00    -0.064 C 
ATOM     19  C   UNL     1      87.486  53.319  42.062  1.00  0.00     0.012 C 
ATOM     20  C   UNL     1      84.657  53.230  42.391  1.00  0.00     0.022 C 
ATOM     21  C   UNL     1      86.910  54.229  43.161  1.00  0.00     0.008 C 
ATOM     22  C   UNL     1      85.370  54.189  43.388  1.00  0.00    -0.026 C 
ATOM     23  C   UNL     1      84.400  53.848  41.000  1.00  0.00     0.015 C 
ATOM     24  C   UNL     1      84.767  55.621  43.327  1.00  0.00     0.008 C 
ATOM     25  C   UNL     1      83.724  55.233  41.030  1.00  0.00    -0.035 C 
ATOM     26  C   UNL     1      84.568  56.167  41.917  1.00  0.00     0.007 C 
ATOM     27  C   UNL     1      90.872  46.684  43.606  1.00  0.00     0.015 C 
ATOM     28  C   UNL     1      90.887  46.597  41.129  1.00  0.00     0.015 C 
ATOM     29  C   UNL     1      87.800  47.858  44.449  1.00  0.00     0.012 C 
ATOM     30  C   UNL     1      87.868  51.099  44.155  1.00  0.00     0.012 C 
ATOM     31  C   UNL     1      86.879  51.616  40.340  1.00  0.00     0.017 C 
ATOM     32  C   UNL     1      85.118  53.708  44.844  1.00  0.00     0.012 C 
ATOM     33  C   UNL     1      82.270  55.134  41.529  1.00  0.00     0.011 C 
ATOM     34  C   UNL     1      83.690  55.807  39.599  1.00  0.00     0.011 C 
ENDBRANCH   1   5
TORSDOF 2
ENDMDL
MODEL 3
REMARK VINA RESULT:    -5.656      3.174      8.951
REMARK INTER + INTRA:          -6.576
REMARK INTER:                  -6.108
REMARK INTRA:                  -0.468
REMARK UNBOUND:                -0.259
REMARK SMILES CC(=O)O[C@H]1CC[C@]2(C)[C@H]3CC=C4[C@@H]5CC(C)(C)CC[C@]5(C)CC[C@@]4(C)[C@]3(C)CC[C@H]2C1(C)C
REMARK SMILES IDX 4 1 2 2 3 3 1 4 5 5 6 6 32 7 7 8 31 9 8 10 30 11 10 12 29 13
REMARK SMILES IDX 27 14 11 15 25 16 12 17 13 18 24 19 14 20 23 21 21 22 15 23
REMARK SMILES IDX 20 24 16 25 19 26 33 27 34 28 9 29 28 30 26 31 22 32 17 33
REMARK SMILES IDX 18 34
REMARK H PARENT
ROOT
ATOM      1  O   UNL     1      86.224  45.619  43.356  1.00  0.00    -0.462 OA
ENDROOT
BRANCH   1   2
ATOM      2  C   UNL     1      85.747  44.368  43.114  1.00  0.00     0.302 C 
ATOM      3  O   UNL     1      84.654  43.940  43.458  1.00  0.00    -0.253 OA
ATOM      4  C   UNL     1      86.766  43.574  42.356  1.00  0.00     0.139 C 
ENDBRANCH   1   2
BRANCH   1   5
ATOM      5  C   UNL     1      86.401  46.483  42.215  1.00  0.00     0.182 C 
ATOM      6  C   UNL     1      85.142  47.328  42.025  1.00  0.00     0.046 C 
ATOM      7  C   UNL     1      87.675  47.382  42.388  1.00  0.00     0.005 C 
ATOM      8  C   UNL     1      84.842  48.251  43.213  1.00  0.00     0.011 C 
ATOM      9  C   UNL     1      87.299  48.840  42.873  1.00  0.00     0.005 C 
ATOM     10  C   UNL     1      86.091  48.941  43.868  1.00  0.00    -0.025 C 
ATOM     11  C   UNL     1      88.504  49.671  43.354  1.00  0.00     0.005 C 
ATOM     12  C   UNL     1      85.756  50.486  44.082  1.00  0.00     0.006 C 
ATOM     13  C   UNL     1      88.146  51.153  43.490  1.00  0.00     0.008 C 
ATOM     14  C   UNL     1      86.955  51.452  44.448  1.00  0.00    -0.020 C 
ATOM     15  C   UNL     1      84.515  50.756  44.968  1.00  0.00     0.032 C 
ATOM     16  C   UNL     1      86.438  52.998  44.302  1.00  0.00    -0.006 C 
ATOM     17  C   UNL     1      84.298  52.191  45.352  1.00  0.00    -0.027 C 
ATOM     18  C   UNL     1      85.143  53.209  45.098  1.00  0.00    -0.064 C 
ATOM     19  C   UNL     1      87.506  54.056  44.739  1.00  0.00     0.012 C 
ATOM     20  C   UNL     1      84.892  54.576  45.744  1.00  0.00     0.022 C 
ATOM     21  C   UNL     1      87.439  54.616  46.170  1.00  0.00     0.008 C 
ATOM     22  C   UNL     1      86.026  54.889  46.764  1.00  0.00    -0.026 C 
ATOM     23  C   UNL     1      84.640  55.703  44.720  1.00  0.00     0.015 C 
ATOM     24  C   UNL     1      85.924  56.346  47.295  1.00  0.00     0.008 C 
ATOM     25  C   UNL     1      84.468  57.104  45.339  1.00  0.00    -0.035 C 
ATOM     26  C   UNL     1      85.699  57.401  46.217  1.00  0.00     0.007 C 
ATOM     27  C   UNL     1      88.725  46.688  43.283  1.00  0.00     0.015 C 
ATOM     28  C   UNL     1      88.326  47.512  40.979  1.00  0.00     0.015 C 
ATOM     29  C   UNL     1      86.377  48.214  45.204  1.00  0.00     0.012 C 
ATOM     30  C   UNL     1      87.458  51.205  45.893  1.00  0.00     0.012 C 
ATOM     31  C   UNL     1      86.116  53.314  42.802  1.00  0.00     0.017 C 
ATOM     32  C   UNL     1      85.858  53.990  48.021  1.00  0.00     0.012 C 
ATOM     33  C   UNL     1      83.159  57.203  46.144  1.00  0.00     0.011 C 
ATOM     34  C   UNL     1      84.404  58.149  44.208  1.00  0.00     0.011 C 
ENDBRANCH   1   5
TORSDOF 2
ENDMDL
MODEL 4
REMARK VINA RESULT:    -5.012      3.653      8.978
REMARK INTER + INTRA:          -5.857
REMARK INTER:                  -5.571
REMARK INTRA:                  -0.286
REMARK UNBOUND:                -0.259
REMARK SMILES CC(=O)O[C@H]1CC[C@]2(C)[C@H]3CC=C4[C@@H]5CC(C)(C)CC[C@]5(C)CC[C@@]4(C)[C@]3(C)CC[C@H]2C1(C)C
REMARK SMILES IDX 4 1 2 2 3 3 1 4 5 5 6 6 32 7 7 8 31 9 8 10 30 11 10 12 29 13
REMARK SMILES IDX 27 14 11 15 25 16 12 17 13 18 24 19 14 20 23 21 21 22 15 23
REMARK SMILES IDX 20 24 16 25 19 26 33 27 34 28 9 29 28 30 26 31 22 32 17 33
REMARK SMILES IDX 18 34
REMARK H PARENT
ROOT
ATOM      1  O   UNL     1      85.655  44.886  42.698  1.00  0.00    -0.462 OA
ENDROOT
BRANCH   1   2
ATOM      2  C   UNL     1      86.631  44.066  43.173  1.00  0.00     0.302 C 
ATOM      3  O   UNL     1      86.458  43.073  43.866  1.00  0.00    -0.253 OA
ATOM      4  C   UNL     1      87.971  44.560  42.722  1.00  0.00     0.139 C 
ENDBRANCH   1   2
BRANCH   1   5
ATOM      5  C   UNL     1      84.587  45.225  43.606  1.00  0.00     0.182 C 
ATOM      6  C   UNL     1      85.183  45.816  44.883  1.00  0.00     0.046 C 
ATOM      7  C   UNL     1      83.576  46.217  42.933  1.00  0.00     0.005 C 
ATOM      8  C   UNL     1      85.967  47.113  44.648  1.00  0.00     0.011 C 
ATOM      9  C   UNL     1      83.835  47.711  43.385  1.00  0.00     0.005 C 
ATOM     10  C   UNL     1      85.336  48.108  43.610  1.00  0.00    -0.025 C 
ATOM     11  C   UNL     1      83.090  48.761  42.537  1.00  0.00     0.005 C 
ATOM     12  C   UNL     1      85.369  49.575  44.238  1.00  0.00     0.006 C 
ATOM     13  C   UNL     1      83.104  50.137  43.208  1.00  0.00     0.008 C 
ATOM     14  C   UNL     1      84.523  50.700  43.516  1.00  0.00    -0.020 C 
ATOM     15  C   UNL     1      86.783  50.078  44.616  1.00  0.00     0.032 C 
ATOM     16  C   UNL     1      84.453  52.007  44.499  1.00  0.00    -0.006 C 
ATOM     17  C   UNL     1      86.867  51.523  45.015  1.00  0.00    -0.027 C 
ATOM     18  C   UNL     1      85.861  52.416  44.950  1.00  0.00    -0.064 C 
ATOM     19  C   UNL     1      83.726  53.234  43.852  1.00  0.00     0.012 C 
ATOM     20  C   UNL     1      86.156  53.902  45.181  1.00  0.00     0.022 C 
ATOM     21  C   UNL     1      84.583  54.318  43.176  1.00  0.00     0.008 C 
ATOM     22  C   UNL     1      85.931  54.692  43.859  1.00  0.00    -0.026 C 
ATOM     23  C   UNL     1      85.415  54.493  46.400  1.00  0.00     0.015 C 
ATOM     24  C   UNL     1      86.023  56.226  44.093  1.00  0.00     0.008 C 
ATOM     25  C   UNL     1      85.627  56.006  46.606  1.00  0.00    -0.035 C 
ATOM     26  C   UNL     1      85.244  56.732  45.302  1.00  0.00     0.007 C 
ATOM     27  C   UNL     1      83.558  46.034  41.400  1.00  0.00     0.015 C 
ATOM     28  C   UNL     1      82.156  45.819  43.433  1.00  0.00     0.015 C 
ATOM     29  C   UNL     1      86.166  48.010  42.308  1.00  0.00     0.012 C 
ATOM     30  C   UNL     1      85.158  51.101  42.160  1.00  0.00     0.012 C 
ATOM     31  C   UNL     1      83.635  51.661  45.789  1.00  0.00     0.017 C 
ATOM     32  C   UNL     1      87.076  54.369  42.859  1.00  0.00     0.012 C 
ATOM     33  C   UNL     1      87.077  56.316  47.023  1.00  0.00     0.011 C 
ATOM     34  C   UNL     1      84.699  56.494  47.736  1.00  0.00     0.011 C 
ENDBRANCH   1   5
TORSDOF 2
ENDMDL
MODEL 5
REMARK VINA RESULT:    -5.005      1.572      3.344
REMARK INTER + INTRA:          -5.849
REMARK INTER:                  -5.610
REMARK INTRA:                  -0.239
REMARK UNBOUND:                -0.259
REMARK SMILES CC(=O)O[C@H]1CC[C@]2(C)[C@H]3CC=C4[C@@H]5CC(C)(C)CC[C@]5(C)CC[C@@]4(C)[C@]3(C)CC[C@H]2C1(C)C
REMARK SMILES IDX 4 1 2 2 3 3 1 4 5 5 6 6 32 7 7 8 31 9 8 10 30 11 10 12 29 13
REMARK SMILES IDX 27 14 11 15 25 16 12 17 13 18 24 19 14 20 23 21 21 22 15 23
REMARK SMILES IDX 20 24 16 25 19 26 33 27 34 28 9 29 28 30 26 31 22 32 17 33
REMARK SMILES IDX 18 34
REMARK H PARENT
ROOT
ATOM      1  O   UNL     1      84.180  56.513  46.190  1.00  0.00    -0.462 OA
ENDROOT
BRANCH   1   2
ATOM      2  C   UNL     1      83.455  57.576  46.632  1.00  0.00     0.302 C 
ATOM      3  O   UNL     1      82.355  57.521  47.164  1.00  0.00    -0.253 OA
ATOM      4  C   UNL     1      84.206  58.845  46.370  1.00  0.00     0.139 C 
ENDBRANCH   1   2
BRANCH   1   5
ATOM      5  C   UNL     1      85.304  56.800  45.334  1.00  0.00     0.182 C 
ATOM      6  C   UNL     1      86.557  56.146  45.915  1.00  0.00     0.046 C 
ATOM      7  C   UNL     1      85.030  56.311  43.869  1.00  0.00     0.005 C 
ATOM      8  C   UNL     1      86.466  54.617  45.998  1.00  0.00     0.011 C 
ATOM      9  C   UNL     1      85.730  54.923  43.576  1.00  0.00     0.005 C 
ATOM     10  C   UNL     1      85.777  53.913  44.774  1.00  0.00    -0.025 C 
ATOM     11  C   UNL     1      85.255  54.243  42.277  1.00  0.00     0.005 C 
ATOM     12  C   UNL     1      86.679  52.671  44.338  1.00  0.00     0.006 C 
ATOM     13  C   UNL     1      86.183  53.095  41.872  1.00  0.00     0.008 C 
ATOM     14  C   UNL     1      86.357  51.984  42.949  1.00  0.00    -0.020 C 
ATOM     15  C   UNL     1      86.909  51.622  45.453  1.00  0.00     0.032 C 
ATOM     16  C   UNL     1      87.586  50.969  42.575  1.00  0.00    -0.006 C 
ATOM     17  C   UNL     1      87.578  50.352  45.015  1.00  0.00    -0.027 C 
ATOM     18  C   UNL     1      87.868  50.015  43.743  1.00  0.00    -0.064 C 
ATOM     19  C   UNL     1      87.338  50.146  41.267  1.00  0.00     0.012 C 
ATOM     20  C   UNL     1      88.348  48.593  43.431  1.00  0.00     0.022 C 
ATOM     21  C   UNL     1      86.765  48.724  41.395  1.00  0.00     0.008 C 
ATOM     22  C   UNL     1      87.274  47.854  42.581  1.00  0.00    -0.026 C 
ATOM     23  C   UNL     1      89.769  48.542  42.830  1.00  0.00     0.015 C 
ATOM     24  C   UNL     1      87.801  46.482  42.071  1.00  0.00     0.008 C 
ATOM     25  C   UNL     1      90.244  47.132  42.428  1.00  0.00    -0.035 C 
ATOM     26  C   UNL     1      89.202  46.523  41.471  1.00  0.00     0.007 C 
ATOM     27  C   UNL     1      83.517  56.314  43.559  1.00  0.00     0.015 C 
ATOM     28  C   UNL     1      85.669  57.365  42.917  1.00  0.00     0.015 C 
ATOM     29  C   UNL     1      84.362  53.478  45.225  1.00  0.00     0.012 C 
ATOM     30  C   UNL     1      85.026  51.192  43.006  1.00  0.00     0.012 C 
ATOM     31  C   UNL     1      88.896  51.789  42.320  1.00  0.00     0.017 C 
ATOM     32  C   UNL     1      86.051  47.507  43.475  1.00  0.00     0.012 C 
ATOM     33  C   UNL     1      90.466  46.243  43.666  1.00  0.00     0.011 C 
ATOM     34  C   UNL     1      91.590  47.248  41.686  1.00  0.00     0.011 C 
ENDBRANCH   1   5
TORSDOF 2
ENDMDL
MODEL 6
REMARK VINA RESULT:    -4.940      1.770      3.416
REMARK INTER + INTRA:          -5.776
REMARK INTER:                  -5.336
REMARK INTRA:                  -0.440
REMARK UNBOUND:                -0.259
REMARK SMILES CC(=O)O[C@H]1CC[C@]2(C)[C@H]3CC=C4[C@@H]5CC(C)(C)CC[C@]5(C)CC[C@@]4(C)[C@]3(C)CC[C@H]2C1(C)C
REMARK SMILES IDX 4 1 2 2 3 3 1 4 5 5 6 6 32 7 7 8 31 9 8 10 30 11 10 12 29 13
REMARK SMILES IDX 27 14 11 15 25 16 12 17 13 18 24 19 14 20 23 21 21 22 15 23
REMARK SMILES IDX 20 24 16 25 19 26 33 27 34 28 9 29 28 30 26 31 22 32 17 33
REMARK SMILES IDX 18 34
REMARK H PARENT
ROOT
ATOM      1  O   UNL     1      84.617  55.143  46.175  1.00  0.00    -0.462 OA
ENDROOT
BRANCH   1   2
ATOM      2  C   UNL     1      84.564  56.000  47.231  1.00  0.00     0.302 C 
ATOM      3  O   UNL     1      84.811  57.197  47.194  1.00  0.00    -0.253 OA
ATOM      4  C   UNL     1      84.156  55.258  48.466  1.00  0.00     0.139 C 
ENDBRANCH   1   2
BRANCH   1   5
ATOM      5  C   UNL     1      85.880  55.027  45.490  1.00  0.00     0.182 C 
ATOM      6  C   UNL     1      86.762  54.021  46.230  1.00  0.00     0.046 C 
ATOM      7  C   UNL     1      85.667  54.609  43.993  1.00  0.00     0.005 C 
ATOM      8  C   UNL     1      86.171  52.607  46.274  1.00  0.00     0.011 C 
ATOM      9  C   UNL     1      85.915  53.061  43.778  1.00  0.00     0.005 C 
ATOM     10  C   UNL     1      85.467  52.126  44.955  1.00  0.00    -0.025 C 
ATOM     11  C   UNL     1      85.429  52.532  42.414  1.00  0.00     0.005 C 
ATOM     12  C   UNL     1      85.970  50.647  44.628  1.00  0.00     0.006 C 
ATOM     13  C   UNL     1      85.983  51.135  42.125  1.00  0.00     0.008 C 
ATOM     14  C   UNL     1      85.639  50.060  43.197  1.00  0.00    -0.020 C 
ATOM     15  C   UNL     1      85.693  49.614  45.747  1.00  0.00     0.032 C 
ATOM     16  C   UNL     1      86.513  48.693  42.982  1.00  0.00    -0.006 C 
ATOM     17  C   UNL     1      85.969  48.184  45.386  1.00  0.00    -0.027 C 
ATOM     18  C   UNL     1      86.308  47.734  44.162  1.00  0.00    -0.064 C 
ATOM     19  C   UNL     1      86.195  47.955  41.638  1.00  0.00     0.012 C 
ATOM     20  C   UNL     1      86.341  46.224  43.897  1.00  0.00     0.022 C 
ATOM     21  C   UNL     1      85.182  46.798  41.661  1.00  0.00     0.008 C 
ATOM     22  C   UNL     1      85.213  45.845  42.893  1.00  0.00    -0.026 C 
ATOM     23  C   UNL     1      87.737  45.700  43.500  1.00  0.00     0.015 C 
ATOM     24  C   UNL     1      85.334  44.363  42.439  1.00  0.00     0.008 C 
ATOM     25  C   UNL     1      87.782  44.201  43.145  1.00  0.00    -0.035 C 
ATOM     26  C   UNL     1      86.741  43.933  42.041  1.00  0.00     0.007 C 
ATOM     27  C   UNL     1      84.295  55.090  43.475  1.00  0.00     0.015 C 
ATOM     28  C   UNL     1      86.737  55.373  43.158  1.00  0.00     0.015 C 
ATOM     29  C   UNL     1      83.939  52.184  45.195  1.00  0.00     0.012 C 
ATOM     30  C   UNL     1      84.129  49.741  43.054  1.00  0.00     0.012 C 
ATOM     31  C   UNL     1      88.040  49.039  42.926  1.00  0.00     0.017 C 
ATOM     32  C   UNL     1      83.832  45.938  43.600  1.00  0.00     0.012 C 
ATOM     33  C   UNL     1      87.532  43.325  44.387  1.00  0.00     0.011 C 
ATOM     34  C   UNL     1      89.182  43.855  42.600  1.00  0.00     0.011 C 
ENDBRANCH   1   5
TORSDOF 2
ENDMDL
