MODEL 1
REMARK VINA RESULT:    -6.824      0.000      0.000
REMARK INTER + INTRA:          -7.376
REMARK INTER:                  -7.267
REMARK INTRA:                  -0.109
REMARK UNBOUND:                 0.246
REMARK SMILES CC(=O)O[C@@H]1CC[C@]2(C)[C@H]3CC=C4[C@@H]5CC(C)(C)CC[C@]5(C)CC[C@@]4(C)[C@]3(C)CC[C@H]2C1(C)C
REMARK SMILES IDX 4 1 2 2 3 3 1 4 5 5 6 6 32 7 7 8 31 9 8 10 30 11 10 12 29 13
REMARK SMILES IDX 27 14 11 15 25 16 12 17 13 18 24 19 14 20 23 21 21 22 15 23
REMARK SMILES IDX 20 24 16 25 19 26 33 27 34 28 9 29 28 30 26 31 22 32 17 33
REMARK SMILES IDX 18 34
REMARK H PARENT
ROOT
ATOM      1  O   UNL     1      84.095  56.895  45.482  1.00  0.00    -0.462 OA
ENDROOT
BRANCH   1   2
ATOM      2  C   UNL     1      84.488  58.181  45.284  1.00  0.00     0.302 C 
ATOM      3  O   UNL     1      84.958  58.639  44.253  1.00  0.00    -0.253 OA
ATOM      4  C   UNL     1      84.266  58.976  46.535  1.00  0.00     0.139 C 
ENDBRANCH   1   2
BRANCH   1   5
ATOM      5  C   UNL     1      84.753  55.866  44.708  1.00  0.00     0.182 C 
ATOM      6  C   UNL     1      83.740  54.746  44.505  1.00  0.00     0.046 C 
ATOM      7  C   UNL     1      86.044  55.352  45.426  1.00  0.00     0.005 C 
ATOM      8  C   UNL     1      84.256  53.625  43.602  1.00  0.00     0.011 C 
ATOM      9  C   UNL     1      86.311  53.830  45.086  1.00  0.00     0.005 C 
ATOM     10  C   UNL     1      85.797  53.341  43.690  1.00  0.00    -0.025 C 
ATOM     11  C   UNL     1      87.759  53.373  45.350  1.00  0.00     0.005 C 
ATOM     12  C   UNL     1      86.011  51.761  43.597  1.00  0.00     0.006 C 
ATOM     13  C   UNL     1      87.871  51.848  45.336  1.00  0.00     0.008 C 
ATOM     14  C   UNL     1      87.421  51.178  44.006  1.00  0.00    -0.020 C 
ATOM     15  C   UNL     1      85.502  51.131  42.282  1.00  0.00     0.032 C 
ATOM     16  C   UNL     1      87.283  49.553  44.169  1.00  0.00    -0.006 C 
ATOM     17  C   UNL     1      85.814  49.674  42.120  1.00  0.00    -0.027 C 
ATOM     18  C   UNL     1      86.613  48.945  42.924  1.00  0.00    -0.064 C 
ATOM     19  C   UNL     1      88.657  48.842  44.409  1.00  0.00     0.012 C 
ATOM     20  C   UNL     1      86.964  47.511  42.524  1.00  0.00     0.022 C 
ATOM     21  C   UNL     1      89.351  48.325  43.146  1.00  0.00     0.008 C 
ATOM     22  C   UNL     1      88.502  47.325  42.314  1.00  0.00    -0.026 C 
ATOM     23  C   UNL     1      86.371  46.443  43.461  1.00  0.00     0.015 C 
ATOM     24  C   UNL     1      88.935  45.874  42.674  1.00  0.00     0.008 C 
ATOM     25  C   UNL     1      86.547  44.999  42.919  1.00  0.00    -0.035 C 
ATOM     26  C   UNL     1      87.917  44.829  42.218  1.00  0.00     0.007 C 
ATOM     27  C   UNL     1      87.220  56.279  45.043  1.00  0.00     0.015 C 
ATOM     28  C   UNL     1      85.885  55.473  46.968  1.00  0.00     0.015 C 
ATOM     29  C   UNL     1      86.476  54.107  42.527  1.00  0.00     0.012 C 
ATOM     30  C   UNL     1      88.495  51.504  42.936  1.00  0.00     0.012 C 
ATOM     31  C   UNL     1      86.399  49.204  45.407  1.00  0.00     0.017 C 
ATOM     32  C   UNL     1      88.839  47.581  40.822  1.00  0.00     0.012 C 
ATOM     33  C   UNL     1      85.421  44.658  41.926  1.00  0.00     0.011 C 
ATOM     34  C   UNL     1      86.444  44.019  44.104  1.00  0.00     0.011 C 
ENDBRANCH   1   5
TORSDOF 2
ENDMDL
MODEL 2
REMARK VINA RESULT:    -6.441      1.679      3.487
REMARK INTER + INTRA:          -6.948
REMARK INTER:                  -6.620
REMARK INTRA:                  -0.329
REMARK UNBOUND:                 0.246
REMARK SMILES CC(=O)O[C@@H]1CC[C@]2(C)[C@H]3CC=C4[C@@H]5CC(C)(C)CC[C@]5(C)CC[C@@]4(C)[C@]3(C)CC[C@H]2C1(C)C
REMARK SMILES IDX 4 1 2 2 3 3 1 4 5 5 6 6 32 7 7 8 31 9 8 10 30 11 10 12 29 13
REMARK SMILES IDX 27 14 11 15 25 16 12 17 13 18 24 19 14 20 23 21 21 22 15 23
REMARK SMILES IDX 20 24 16 25 19 26 33 27 34 28 9 29 28 30 26 31 22 32 17 33
REMARK SMILES IDX 18 34
REMARK H PARENT
ROOT
ATOM      1  O   UNL     1      86.252  56.818  44.564  1.00  0.00    -0.462 OA
ENDROOT
BRANCH   1   2
ATOM      2  C   UNL     1      85.567  57.836  45.150  1.00  0.00     0.302 C 
ATOM      3  O   UNL     1      85.360  58.938  44.663  1.00  0.00    -0.253 OA
ATOM      4  C   UNL     1      85.095  57.411  46.507  1.00  0.00     0.139 C 
ENDBRANCH   1   2
BRANCH   1   5
ATOM      5  C   UNL     1      85.808  55.469  44.835  1.00  0.00     0.182 C 
ATOM      6  C   UNL     1      87.058  54.611  44.984  1.00  0.00     0.046 C 
ATOM      7  C   UNL     1      84.876  54.937  43.696  1.00  0.00     0.005 C 
ATOM      8  C   UNL     1      86.753  53.167  45.387  1.00  0.00     0.011 C 
ATOM      9  C   UNL     1      85.023  53.369  43.533  1.00  0.00     0.005 C 
ATOM     10  C   UNL     1      85.408  52.580  44.830  1.00  0.00    -0.025 C 
ATOM     11  C   UNL     1      83.848  52.704  42.791  1.00  0.00     0.005 C 
ATOM     12  C   UNL     1      85.665  51.054  44.436  1.00  0.00     0.006 C 
ATOM     13  C   UNL     1      84.197  51.277  42.365  1.00  0.00     0.008 C 
ATOM     14  C   UNL     1      84.588  50.329  43.535  1.00  0.00    -0.020 C 
ATOM     15  C   UNL     1      86.101  50.161  45.618  1.00  0.00     0.032 C 
ATOM     16  C   UNL     1      85.232  48.927  42.982  1.00  0.00    -0.006 C 
ATOM     17  C   UNL     1      86.217  48.702  45.295  1.00  0.00    -0.027 C 
ATOM     18  C   UNL     1      85.826  48.115  44.146  1.00  0.00    -0.064 C 
ATOM     19  C   UNL     1      84.199  48.038  42.213  1.00  0.00     0.012 C 
ATOM     20  C   UNL     1      85.857  46.590  44.042  1.00  0.00     0.022 C 
ATOM     21  C   UNL     1      83.482  46.988  43.066  1.00  0.00     0.008 C 
ATOM     22  C   UNL     1      84.433  45.994  43.788  1.00  0.00    -0.026 C 
ATOM     23  C   UNL     1      86.897  46.058  43.037  1.00  0.00     0.015 C 
ATOM     24  C   UNL     1      84.525  44.685  42.952  1.00  0.00     0.008 C 
ATOM     25  C   UNL     1      87.069  44.517  43.106  1.00  0.00    -0.035 C 
ATOM     26  C   UNL     1      85.713  43.814  43.357  1.00  0.00     0.007 C 
ATOM     27  C   UNL     1      83.428  55.387  43.997  1.00  0.00     0.015 C 
ATOM     28  C   UNL     1      85.258  55.592  42.339  1.00  0.00     0.015 C 
ATOM     29  C   UNL     1      84.339  52.741  45.939  1.00  0.00     0.012 C 
ATOM     30  C   UNL     1      83.296  50.027  44.338  1.00  0.00     0.012 C 
ATOM     31  C   UNL     1      86.382  49.221  41.968  1.00  0.00     0.017 C 
ATOM     32  C   UNL     1      83.781  45.659  45.154  1.00  0.00     0.012 C 
ATOM     33  C   UNL     1      88.055  44.138  44.227  1.00  0.00     0.011 C 
ATOM     34  C   UNL     1      87.667  44.034  41.769  1.00  0.00     0.011 C 
ENDBRANCH   1   5
TORSDOF 2
ENDMDL
MODEL 3
REMARK VINA RESULT:    -6.251      1.313      3.217
REMARK INTER + INTRA:          -6.736
REMARK INTER:                  -6.773
REMARK INTRA:                   0.037
REMARK UNBOUND:                 0.246
REMARK SMILES CC(=O)O[C@@H]1CC[C@]2(C)[C@H]3CC=C4[C@@H]5CC(C)(C)CC[C@]5(C)CC[C@@]4(C)[C@]3(C)CC[C@H]2C1(C)C
REMARK SMILES IDX 4 1 2 2 3 3 1 4 5 5 6 6 32 7 7 8 31 9 8 10 30 11 10 12 29 13
REMARK SMILES IDX 27 14 11 15 25 16 12 17 13 18 24 19 14 20 23 21 21 22 15 23
REMARK SMILES IDX 20 24 16 25 19 26 33 27 34 28 9 29 28 30 26 31 22 32 17 33
REMARK SMILES IDX 18 34
REMARK H PARENT
ROOT
ATOM      1  O   UNL     1      85.596  57.864  45.458  1.00  0.00    -0.462 OA
ENDROOT
BRANCH   1   2
ATOM      2  C   UNL     1      84.485  58.538  45.858  1.00  0.00     0.302 C 
ATOM      3  O   UNL     1      84.079  59.594  45.397  1.00  0.00    -0.253 OA
ATOM      4  C   UNL     1      83.815  57.791  46.971  1.00  0.00     0.139 C 
ENDBRANCH   1   2
BRANCH   1   5
ATOM      5  C   UNL     1      85.540  56.419  45.462  1.00  0.00     0.182 C 
ATOM      6  C   UNL     1      86.966  55.920  45.661  1.00  0.00     0.046 C 
ATOM      7  C   UNL     1      84.917  55.870  44.136  1.00  0.00     0.005 C 
ATOM      8  C   UNL     1      87.057  54.399  45.800  1.00  0.00     0.011 C 
ATOM      9  C   UNL     1      85.529  54.457  43.768  1.00  0.00     0.005 C 
ATOM     10  C   UNL     1      86.001  53.580  44.976  1.00  0.00    -0.025 C 
ATOM     11  C   UNL     1      84.675  53.644  42.776  1.00  0.00     0.005 C 
ATOM     12  C   UNL     1      86.728  52.279  44.404  1.00  0.00     0.006 C 
ATOM     13  C   UNL     1      85.464  52.467  42.199  1.00  0.00     0.008 C 
ATOM     14  C   UNL     1      86.000  51.465  43.261  1.00  0.00    -0.020 C 
ATOM     15  C   UNL     1      87.290  51.339  45.492  1.00  0.00     0.032 C 
ATOM     16  C   UNL     1      87.075  50.415  42.607  1.00  0.00    -0.006 C 
ATOM     17  C   UNL     1      87.856  50.049  44.979  1.00  0.00    -0.027 C 
ATOM     18  C   UNL     1      87.765  49.597  43.713  1.00  0.00    -0.064 C 
ATOM     19  C   UNL     1      86.423  49.434  41.577  1.00  0.00     0.012 C 
ATOM     20  C   UNL     1      88.248  48.182  43.391  1.00  0.00     0.022 C 
ATOM     21  C   UNL     1      85.965  48.092  42.155  1.00  0.00     0.008 C 
ATOM     22  C   UNL     1      87.091  47.279  42.852  1.00  0.00    -0.026 C 
ATOM     23  C   UNL     1      89.489  48.143  42.479  1.00  0.00     0.015 C 
ATOM     24  C   UNL     1      87.639  46.218  41.855  1.00  0.00     0.008 C 
ATOM     25  C   UNL     1      90.096  46.721  42.346  1.00  0.00    -0.035 C 
ATOM     26  C   UNL     1      88.985  45.643  42.294  1.00  0.00     0.007 C 
ATOM     27  C   UNL     1      83.379  55.848  44.289  1.00  0.00     0.015 C 
ATOM     28  C   UNL     1      85.219  56.839  42.959  1.00  0.00     0.015 C 
ATOM     29  C   UNL     1      84.831  53.242  45.933  1.00  0.00     0.012 C 
ATOM     30  C   UNL     1      84.781  50.683  43.818  1.00  0.00     0.012 C 
ATOM     31  C   UNL     1      88.181  51.187  41.823  1.00  0.00     0.017 C 
ATOM     32  C   UNL     1      86.437  46.537  44.047  1.00  0.00     0.012 C 
ATOM     33  C   UNL     1      91.037  46.426  43.528  1.00  0.00     0.011 C 
ATOM     34  C   UNL     1      90.932  46.668  41.052  1.00  0.00     0.011 C 
ENDBRANCH   1   5
TORSDOF 2
ENDMDL
MODEL 4
REMARK VINA RESULT:    -6.109      4.059      9.149
REMARK INTER + INTRA:          -6.578
REMARK INTER:                  -6.148
REMARK INTRA:                  -0.430
REMARK UNBOUND:                 0.246
REMARK SMILES CC(=O)O[C@@H]1CC[C@]2(C)[C@H]3CC=C4[C@@H]5CC(C)(C)CC[C@]5(C)CC[C@@]4(C)[C@]3(C)CC[C@H]2C1(C)C
REMARK SMILES IDX 4 1 2 2 3 3 1 4 5 5 6 6 32 7 7 8 31 9 8 10 30 11 10 12 29 13
REMARK SMILES IDX 27 14 11 15 25 16 12 17 13 18 24 19 14 20 23 21 21 22 15 23
REMARK SMILES IDX 20 24 16 25 19 26 33 27 34 28 9 29 28 30 26 31 22 32 17 33
REMARK SMILES IDX 18 34
REMARK H PARENT
ROOT
ATOM      1  O   UNL     1      88.976  44.061  42.394  1.00  0.00    -0.462 OA
ENDROOT
BRANCH   1   2
ATOM      2  C   UNL     1      88.545  42.912  42.981  1.00  0.00     0.302 C 
ATOM      3  O   UNL     1      87.898  42.027  42.441  1.00  0.00    -0.253 OA
ATOM      4  C   UNL     1      88.979  42.884  44.415  1.00  0.00     0.139 C 
ENDBRANCH   1   2
BRANCH   1   5
ATOM      5  C   UNL     1      88.442  45.308  42.893  1.00  0.00     0.182 C 
ATOM      6  C   UNL     1      87.144  45.569  42.141  1.00  0.00     0.046 C 
ATOM      7  C   UNL     1      89.462  46.479  42.704  1.00  0.00     0.005 C 
ATOM      8  C   UNL     1      86.396  46.807  42.640  1.00  0.00     0.011 C 
ATOM      9  C   UNL     1      88.710  47.854  42.481  1.00  0.00     0.005 C 
ATOM     10  C   UNL     1      87.303  47.980  43.158  1.00  0.00    -0.025 C 
ATOM     11  C   UNL     1      89.581  49.096  42.748  1.00  0.00     0.005 C 
ATOM     12  C   UNL     1      86.639  49.355  42.691  1.00  0.00     0.006 C 
ATOM     13  C   UNL     1      88.926  50.363  42.195  1.00  0.00     0.008 C 
ATOM     14  C   UNL     1      87.515  50.668  42.774  1.00  0.00    -0.020 C 
ATOM     15  C   UNL     1      85.219  49.592  43.249  1.00  0.00     0.032 C 
ATOM     16  C   UNL     1      86.760  51.850  41.926  1.00  0.00    -0.006 C 
ATOM     17  C   UNL     1      84.633  50.935  42.931  1.00  0.00    -0.027 C 
ATOM     18  C   UNL     1      85.289  51.966  42.363  1.00  0.00    -0.064 C 
ATOM     19  C   UNL     1      87.450  53.247  42.075  1.00  0.00     0.012 C 
ATOM     20  C   UNL     1      84.595  53.325  42.262  1.00  0.00     0.022 C 
ATOM     21  C   UNL     1      86.884  54.137  43.185  1.00  0.00     0.008 C 
ATOM     22  C   UNL     1      85.364  54.433  43.054  1.00  0.00    -0.026 C 
ATOM     23  C   UNL     1      84.282  53.756  40.817  1.00  0.00     0.015 C 
ATOM     24  C   UNL     1      85.177  55.822  42.381  1.00  0.00     0.008 C 
ATOM     25  C   UNL     1      83.385  55.020  40.745  1.00  0.00    -0.035 C 
ATOM     26  C   UNL     1      83.756  56.032  41.857  1.00  0.00     0.007 C 
ATOM     27  C   UNL     1      90.419  46.497  43.919  1.00  0.00     0.015 C 
ATOM     28  C   UNL     1      90.354  46.220  41.458  1.00  0.00     0.015 C 
ATOM     29  C   UNL     1      87.392  47.850  44.699  1.00  0.00     0.012 C 
ATOM     30  C   UNL     1      87.706  51.123  44.245  1.00  0.00     0.012 C 
ATOM     31  C   UNL     1      86.782  51.522  40.400  1.00  0.00     0.017 C 
ATOM     32  C   UNL     1      84.794  54.505  44.495  1.00  0.00     0.012 C 
ATOM     33  C   UNL     1      81.901  54.634  40.881  1.00  0.00     0.011 C 
ATOM     34  C   UNL     1      83.577  55.675  39.362  1.00  0.00     0.011 C 
ENDBRANCH   1   5
TORSDOF 2
ENDMDL
MODEL 5
REMARK VINA RESULT:    -4.622      3.681      9.309
REMARK INTER + INTRA:          -4.916
REMARK INTER:                  -4.628
REMARK INTRA:                  -0.289
REMARK UNBOUND:                 0.246
REMARK SMILES CC(=O)O[C@@H]1CC[C@]2(C)[C@H]3CC=C4[C@@H]5CC(C)(C)CC[C@]5(C)CC[C@@]4(C)[C@]3(C)CC[C@H]2C1(C)C
REMARK SMILES IDX 4 1 2 2 3 3 1 4 5 5 6 6 32 7 7 8 31 9 8 10 30 11 10 12 29 13
REMARK SMILES IDX 27 14 11 15 25 16 12 17 13 18 24 19 14 20 23 21 21 22 15 23
REMARK SMILES IDX 20 24 16 25 19 26 33 27 34 28 9 29 28 30 26 31 22 32 17 33
REMARK SMILES IDX 18 34
REMARK H PARENT
ROOT
ATOM      1  O   UNL     1      87.153  44.404  43.784  1.00  0.00    -0.462 OA
ENDROOT
BRANCH   1   2
ATOM      2  C   UNL     1      87.330  43.363  42.928  1.00  0.00     0.302 C 
ATOM      3  O   UNL     1      87.106  43.373  41.726  1.00  0.00    -0.253 OA
ATOM      4  C   UNL     1      87.844  42.173  43.680  1.00  0.00     0.139 C 
ENDBRANCH   1   2
BRANCH   1   5
ATOM      5  C   UNL     1      86.884  45.704  43.210  1.00  0.00     0.182 C 
ATOM      6  C   UNL     1      87.858  46.683  43.854  1.00  0.00     0.046 C 
ATOM      7  C   UNL     1      85.398  46.132  43.443  1.00  0.00     0.005 C 
ATOM      8  C   UNL     1      87.772  48.093  43.264  1.00  0.00     0.011 C 
ATOM      9  C   UNL     1      85.276  47.705  43.569  1.00  0.00     0.005 C 
ATOM     10  C   UNL     1      86.345  48.538  42.784  1.00  0.00    -0.025 C 
ATOM     11  C   UNL     1      83.852  48.245  43.335  1.00  0.00     0.005 C 
ATOM     12  C   UNL     1      86.161  50.079  43.159  1.00  0.00     0.006 C 
ATOM     13  C   UNL     1      83.725  49.696  43.800  1.00  0.00     0.008 C 
ATOM     14  C   UNL     1      84.703  50.686  43.106  1.00  0.00    -0.020 C 
ATOM     15  C   UNL     1      87.186  51.019  42.488  1.00  0.00     0.032 C 
ATOM     16  C   UNL     1      84.719  52.142  43.860  1.00  0.00    -0.006 C 
ATOM     17  C   UNL     1      86.947  52.481  42.722  1.00  0.00    -0.027 C 
ATOM     18  C   UNL     1      85.859  53.017  43.309  1.00  0.00    -0.064 C 
ATOM     19  C   UNL     1      83.367  52.918  43.725  1.00  0.00     0.012 C 
ATOM     20  C   UNL     1      85.691  54.537  43.318  1.00  0.00     0.022 C 
ATOM     21  C   UNL     1      83.293  53.897  42.550  1.00  0.00     0.008 C 
ATOM     22  C   UNL     1      84.401  54.986  42.556  1.00  0.00    -0.026 C 
ATOM     23  C   UNL     1      85.783  55.163  44.722  1.00  0.00     0.015 C 
ATOM     24  C   UNL     1      83.822  56.291  43.174  1.00  0.00     0.008 C 
ATOM     25  C   UNL     1      85.835  56.714  44.690  1.00  0.00    -0.035 C 
ATOM     26  C   UNL     1      84.914  57.280  43.581  1.00  0.00     0.007 C 
ATOM     27  C   UNL     1      84.533  45.542  42.306  1.00  0.00     0.015 C 
ATOM     28  C   UNL     1      84.859  45.508  44.761  1.00  0.00     0.015 C 
ATOM     29  C   UNL     1      86.269  48.279  41.259  1.00  0.00     0.012 C 
ATOM     30  C   UNL     1      84.222  50.864  41.642  1.00  0.00     0.012 C 
ATOM     31  C   UNL     1      84.956  51.957  45.392  1.00  0.00     0.017 C 
ATOM     32  C   UNL     1      84.767  55.264  41.075  1.00  0.00     0.012 C 
ATOM     33  C   UNL     1      87.277  57.198  44.451  1.00  0.00     0.011 C 
ATOM     34  C   UNL     1      85.381  57.245  46.064  1.00  0.00     0.011 C 
ENDBRANCH   1   5
TORSDOF 2
ENDMDL
MODEL 6
REMARK VINA RESULT:    -3.896      3.859      9.327
REMARK INTER + INTRA:          -4.106
REMARK INTER:                  -6.959
REMARK INTRA:                   2.854
REMARK UNBOUND:                 0.246
REMARK SMILES CC(=O)O[C@@H]1CC[C@]2(C)[C@H]3CC=C4[C@@H]5CC(C)(C)CC[C@]5(C)CC[C@@]4(C)[C@]3(C)CC[C@H]2C1(C)C
REMARK SMILES IDX 4 1 2 2 3 3 1 4 5 5 6 6 32 7 7 8 31 9 8 10 30 11 10 12 29 13
REMARK SMILES IDX 27 14 11 15 25 16 12 17 13 18 24 19 14 20 23 21 21 22 15 23
REMARK SMILES IDX 20 24 16 25 19 26 33 27 34 28 9 29 28 30 26 31 22 32 17 33
REMARK SMILES IDX 18 34
REMARK H PARENT
ROOT
ATOM      1  O   UNL     1      88.938  43.348  42.950  1.00  0.00    -0.462 OA
ENDROOT
BRANCH   1   2
ATOM      2  C   UNL     1      88.648  42.883  44.194  1.00  0.00     0.302 C 
ATOM      3  O   UNL     1      88.979  43.400  45.251  1.00  0.00    -0.253 OA
ATOM      4  C   UNL     1      87.853  41.617  44.087  1.00  0.00     0.139 C 
ENDBRANCH   1   2
BRANCH   1   5
ATOM      5  C   UNL     1      88.579  44.715  42.646  1.00  0.00     0.182 C 
ATOM      6  C   UNL     1      89.369  45.605  43.598  1.00  0.00     0.046 C 
ATOM      7  C   UNL     1      87.038  44.943  42.790  1.00  0.00     0.005 C 
ATOM      8  C   UNL     1      89.179  47.098  43.325  1.00  0.00     0.011 C 
ATOM      9  C   UNL     1      86.726  46.429  43.240  1.00  0.00     0.005 C 
ATOM     10  C   UNL     1      87.763  47.512  42.788  1.00  0.00    -0.025 C 
ATOM     11  C   UNL     1      85.279  46.878  42.963  1.00  0.00     0.005 C 
ATOM     12  C   UNL     1      87.370  48.903  43.466  1.00  0.00     0.006 C 
ATOM     13  C   UNL     1      84.944  48.166  43.716  1.00  0.00     0.008 C 
ATOM     14  C   UNL     1      85.864  49.373  43.375  1.00  0.00    -0.020 C 
ATOM     15  C   UNL     1      88.340  50.060  43.143  1.00  0.00     0.032 C 
ATOM     16  C   UNL     1      85.643  50.612  44.425  1.00  0.00    -0.006 C 
ATOM     17  C   UNL     1      87.915  51.401  43.660  1.00  0.00    -0.027 C 
ATOM     18  C   UNL     1      86.722  51.689  44.217  1.00  0.00    -0.064 C 
ATOM     19  C   UNL     1      84.230  51.274  44.303  1.00  0.00     0.012 C 
ATOM     20  C   UNL     1      86.382  53.145  44.537  1.00  0.00     0.022 C 
ATOM     21  C   UNL     1      84.157  52.486  43.370  1.00  0.00     0.008 C 
ATOM     22  C   UNL     1      85.128  53.639  43.745  1.00  0.00    -0.026 C 
ATOM     23  C   UNL     1      86.269  53.438  46.046  1.00  0.00     0.015 C 
ATOM     24  C   UNL     1      84.348  54.711  44.560  1.00  0.00     0.008 C 
ATOM     25  C   UNL     1      86.146  54.953  46.359  1.00  0.00    -0.035 C 
ATOM     26  C   UNL     1      85.276  55.674  45.299  1.00  0.00     0.007 C 
ATOM     27  C   UNL     1      86.358  44.555  41.457  1.00  0.00     0.015 C 
ATOM     28  C   UNL     1      86.451  43.989  43.867  1.00  0.00     0.015 C 
ATOM     29  C   UNL     1      87.862  47.604  41.245  1.00  0.00     0.012 C 
ATOM     30  C   UNL     1      85.507  49.838  41.939  1.00  0.00     0.012 C 
ATOM     31  C   UNL     1      85.752  50.103  45.896  1.00  0.00     0.017 C 
ATOM     32  C   UNL     1      85.598  54.282  42.414  1.00  0.00     0.012 C 
ATOM     33  C   UNL     1      87.540  55.606  46.403  1.00  0.00     0.011 C 
ATOM     34  C   UNL     1      85.506  55.112  47.752  1.00  0.00     0.011 C 
ENDBRANCH   1   5
TORSDOF 2
ENDMDL
