MODEL 1
REMARK VINA RESULT:    -8.523      0.000      0.000
REMARK INTER + INTRA:          -7.285
REMARK INTER:                  -6.560
REMARK INTRA:                  -0.725
REMARK UNBOUND:                 2.983
REMARK SMILES CC(=O)O[C@H]1CC[C@@]2(C)C(CC[C@@]3(C)C4=CC[C@@]5(C(=O)O)CCC(C)(C)CC5[C@]4(C)CCC23)C1(C)C
REMARK SMILES IDX 5 1 6 2 7 3 8 4 10 5 34 6 35 7 36 8 11 9 12 10 13 11 33 12
REMARK SMILES IDX 32 13 31 14 29 15 15 16 16 17 17 18 18 19 28 20 27 21 24 22
REMARK SMILES IDX 25 23 26 24 23 25 22 26 30 27 14 28 9 29 4 30 2 31 3 32 1 33
REMARK SMILES IDX 19 34 20 35 21 36
REMARK H PARENT 21 37
ROOT
ATOM      1  C   UNL     1      88.007  45.719  42.142  1.00  0.00     0.182 C 
ATOM      2  C   UNL     1      86.689  46.334  41.694  1.00  0.00     0.046 C 
ATOM      3  C   UNL     1      86.117  47.426  42.611  1.00  0.00     0.011 C 
ATOM      4  C   UNL     1      87.143  48.307  43.402  1.00  0.00    -0.025 C 
ATOM      5  C   UNL     1      88.489  48.253  42.608  1.00  0.00     0.005 C 
ATOM      6  C   UNL     1      89.109  46.807  42.365  1.00  0.00     0.005 C 
ATOM      7  C   UNL     1      89.931  46.878  41.042  1.00  0.00     0.015 C 
ATOM      8  C   UNL     1      90.108  46.377  43.463  1.00  0.00     0.015 C 
ATOM      9  C   UNL     1      89.516  49.255  43.148  1.00  0.00     0.006 C 
ATOM     10  C   UNL     1      88.991  50.664  42.958  1.00  0.00     0.012 C 
ATOM     11  C   UNL     1      87.714  50.980  43.761  1.00  0.00    -0.008 C 
ATOM     12  C   UNL     1      86.613  49.825  43.681  1.00  0.00     0.005 C 
ATOM     13  C   UNL     1      85.379  50.295  42.882  1.00  0.00     0.006 C 
ATOM     14  C   UNL     1      85.791  51.010  41.607  1.00  0.00     0.012 C 
ATOM     15  C   UNL     1      86.343  52.423  41.938  1.00  0.00    -0.007 C 
ATOM     16  C   UNL     1      87.185  52.365  43.239  1.00  0.00    -0.062 C 
ATOM     17  C   UNL     1      87.441  53.534  43.861  1.00  0.00    -0.025 C 
ATOM     18  C   UNL     1      86.816  54.822  43.426  1.00  0.00     0.046 C 
ATOM     19  C   UNL     1      85.323  54.621  43.101  1.00  0.00     0.075 C 
ATOM     20  C   UNL     1      85.103  53.431  42.091  1.00  0.00     0.017 C 
ATOM     21  C   UNL     1      84.563  53.942  40.728  1.00  0.00     0.012 C 
ATOM     22  C   UNL     1      83.260  54.773  40.840  1.00  0.00    -0.035 C 
ATOM     23  C   UNL     1      83.065  55.539  39.515  1.00  0.00     0.011 C 
ATOM     24  C   UNL     1      82.045  53.845  41.029  1.00  0.00     0.011 C 
ATOM     25  C   UNL     1      83.326  55.779  42.012  1.00  0.00     0.007 C 
ATOM     26  C   UNL     1      84.742  55.953  42.559  1.00  0.00     0.020 C 
ATOM     27  C   UNL     1      87.246  52.858  40.751  1.00  0.00     0.016 C 
ATOM     28  C   UNL     1      88.132  51.097  45.261  1.00  0.00     0.016 C 
ATOM     29  C   UNL     1      87.293  47.671  44.817  1.00  0.00     0.012 C 
ENDROOT
BRANCH   1  30
ATOM     30  O   UNL     1      87.732  44.942  43.324  1.00  0.00    -0.462 OA
BRANCH  30  31
ATOM     31  C   UNL     1      87.745  43.587  43.207  1.00  0.00     0.302 C 
ATOM     32  O   UNL     1      87.133  42.931  42.376  1.00  0.00    -0.253 OA
ATOM     33  C   UNL     1      88.642  42.999  44.253  1.00  0.00     0.139 C 
ENDBRANCH  30  31
ENDBRANCH   1  30
BRANCH  19  34
ATOM     34  C   UNL     1      84.589  54.318  44.426  1.00  0.00     0.310 C 
ATOM     35  O   UNL     1      84.483  55.043  45.402  1.00  0.00    -0.252 OA
BRANCH  34  36
ATOM     36  O   UNL     1      84.060  53.078  44.482  1.00  0.00    -0.481 OA
ATOM     37  H   UNL     1      84.167  52.745  43.565  1.00  0.00     0.296 HD
ENDBRANCH  34  36
ENDBRANCH  19  34
TORSDOF 4
ENDMDL
MODEL 2
REMARK VINA RESULT:    -7.943      1.834      8.474
REMARK INTER + INTRA:          -6.586
REMARK INTER:                  -6.369
REMARK INTRA:                  -0.217
REMARK UNBOUND:                 2.983
REMARK SMILES CC(=O)O[C@H]1CC[C@@]2(C)C(CC[C@@]3(C)C4=CC[C@@]5(C(=O)O)CCC(C)(C)CC5[C@]4(C)CCC23)C1(C)C
REMARK SMILES IDX 5 1 6 2 7 3 8 4 10 5 34 6 35 7 36 8 11 9 12 10 13 11 33 12
REMARK SMILES IDX 32 13 31 14 29 15 15 16 16 17 17 18 18 19 28 20 27 21 24 22
REMARK SMILES IDX 25 23 26 24 23 25 22 26 30 27 14 28 9 29 4 30 2 31 3 32 1 33
REMARK SMILES IDX 19 34 20 35 21 36
REMARK H PARENT 21 37
ROOT
ATOM      1  C   UNL     1      83.489  54.582  42.494  1.00  0.00     0.182 C 
ATOM      2  C   UNL     1      83.148  53.142  42.136  1.00  0.00     0.046 C 
ATOM      3  C   UNL     1      84.263  52.345  41.442  1.00  0.00     0.011 C 
ATOM      4  C   UNL     1      85.741  52.714  41.808  1.00  0.00    -0.025 C 
ATOM      5  C   UNL     1      85.702  53.381  43.222  1.00  0.00     0.005 C 
ATOM      6  C   UNL     1      84.783  54.672  43.370  1.00  0.00     0.005 C 
ATOM      7  C   UNL     1      84.306  54.728  44.853  1.00  0.00     0.015 C 
ATOM      8  C   UNL     1      85.539  55.995  43.117  1.00  0.00     0.015 C 
ATOM      9  C   UNL     1      87.107  53.585  43.800  1.00  0.00     0.006 C 
ATOM     10  C   UNL     1      87.765  52.236  44.008  1.00  0.00     0.012 C 
ATOM     11  C   UNL     1      88.016  51.443  42.710  1.00  0.00    -0.008 C 
ATOM     12  C   UNL     1      86.765  51.448  41.715  1.00  0.00     0.005 C 
ATOM     13  C   UNL     1      86.136  50.042  41.616  1.00  0.00     0.006 C 
ATOM     14  C   UNL     1      85.983  49.412  42.989  1.00  0.00     0.012 C 
ATOM     15  C   UNL     1      87.366  48.956  43.529  1.00  0.00    -0.007 C 
ATOM     16  C   UNL     1      88.448  49.996  43.141  1.00  0.00    -0.062 C 
ATOM     17  C   UNL     1      89.736  49.602  43.213  1.00  0.00    -0.025 C 
ATOM     18  C   UNL     1      90.122  48.183  43.492  1.00  0.00     0.046 C 
ATOM     19  C   UNL     1      89.231  47.210  42.696  1.00  0.00     0.075 C 
ATOM     20  C   UNL     1      87.699  47.511  42.915  1.00  0.00     0.017 C 
ATOM     21  C   UNL     1      87.001  46.351  43.674  1.00  0.00     0.012 C 
ATOM     22  C   UNL     1      87.164  44.967  42.996  1.00  0.00    -0.035 C 
ATOM     23  C   UNL     1      86.791  43.882  44.027  1.00  0.00     0.011 C 
ATOM     24  C   UNL     1      86.197  44.835  41.805  1.00  0.00     0.011 C 
ATOM     25  C   UNL     1      88.614  44.740  42.510  1.00  0.00     0.007 C 
ATOM     26  C   UNL     1      89.596  45.755  43.093  1.00  0.00     0.020 C 
ATOM     27  C   UNL     1      87.255  48.870  45.076  1.00  0.00     0.016 C 
ATOM     28  C   UNL     1      89.187  52.152  41.959  1.00  0.00     0.016 C 
ATOM     29  C   UNL     1      86.243  53.713  40.722  1.00  0.00     0.012 C 
ENDROOT
BRANCH   1  30
ATOM     30  O   UNL     1      83.592  55.313  41.256  1.00  0.00    -0.462 OA
BRANCH  30  31
ATOM     31  C   UNL     1      82.699  55.021  40.272  1.00  0.00     0.302 C 
ATOM     32  O   UNL     1      81.547  54.645  40.435  1.00  0.00    -0.253 OA
ATOM     33  C   UNL     1      83.334  55.243  38.934  1.00  0.00     0.139 C 
ENDBRANCH  30  31
ENDBRANCH   1  30
BRANCH  19  34
ATOM     34  C   UNL     1      89.582  47.368  41.200  1.00  0.00     0.310 C 
ATOM     35  O   UNL     1      90.674  47.236  40.672  1.00  0.00    -0.252 OA
BRANCH  34  36
ATOM     36  O   UNL     1      88.535  47.741  40.434  1.00  0.00    -0.481 OA
ATOM     37  H   UNL     1      88.959  48.214  39.687  1.00  0.00     0.296 HD
ENDBRANCH  34  36
ENDBRANCH  19  34
TORSDOF 4
ENDMDL
MODEL 3
REMARK VINA RESULT:    -7.884      2.423      8.721
REMARK INTER + INTRA:          -6.515
REMARK INTER:                  -6.858
REMARK INTRA:                   0.343
REMARK UNBOUND:                 2.983
REMARK SMILES CC(=O)O[C@H]1CC[C@@]2(C)C(CC[C@@]3(C)C4=CC[C@@]5(C(=O)O)CCC(C)(C)CC5[C@]4(C)CCC23)C1(C)C
REMARK SMILES IDX 5 1 6 2 7 3 8 4 10 5 34 6 35 7 36 8 11 9 12 10 13 11 33 12
REMARK SMILES IDX 32 13 31 14 29 15 15 16 16 17 17 18 18 19 28 20 27 21 24 22
REMARK SMILES IDX 25 23 26 24 23 25 22 26 30 27 14 28 9 29 4 30 2 31 3 32 1 33
REMARK SMILES IDX 19 34 20 35 21 36
REMARK H PARENT 21 37
ROOT
ATOM      1  C   UNL     1      86.743  54.336  45.797  1.00  0.00     0.182 C 
ATOM      2  C   UNL     1      87.514  53.068  46.134  1.00  0.00     0.046 C 
ATOM      3  C   UNL     1      86.669  51.794  46.287  1.00  0.00     0.011 C 
ATOM      4  C   UNL     1      85.366  51.691  45.423  1.00  0.00    -0.025 C 
ATOM      5  C   UNL     1      85.568  52.631  44.190  1.00  0.00     0.005 C 
ATOM      6  C   UNL     1      85.871  54.160  44.509  1.00  0.00     0.005 C 
ATOM      7  C   UNL     1      86.720  54.715  43.325  1.00  0.00     0.015 C 
ATOM      8  C   UNL     1      84.601  55.037  44.567  1.00  0.00     0.015 C 
ATOM      9  C   UNL     1      84.462  52.452  43.144  1.00  0.00     0.006 C 
ATOM     10  C   UNL     1      84.518  51.041  42.590  1.00  0.00     0.012 C 
ATOM     11  C   UNL     1      84.223  49.939  43.627  1.00  0.00    -0.008 C 
ATOM     12  C   UNL     1      84.980  50.158  45.017  1.00  0.00     0.005 C 
ATOM     13  C   UNL     1      86.066  49.082  45.227  1.00  0.00     0.006 C 
ATOM     14  C   UNL     1      86.885  48.876  43.965  1.00  0.00     0.012 C 
ATOM     15  C   UNL     1      86.057  48.096  42.908  1.00  0.00    -0.007 C 
ATOM     16  C   UNL     1      84.582  48.571  42.945  1.00  0.00    -0.062 C 
ATOM     17  C   UNL     1      83.663  47.775  42.360  1.00  0.00    -0.025 C 
ATOM     18  C   UNL     1      84.003  46.414  41.837  1.00  0.00     0.046 C 
ATOM     19  C   UNL     1      84.916  45.664  42.826  1.00  0.00     0.075 C 
ATOM     20  C   UNL     1      86.173  46.527  43.227  1.00  0.00     0.017 C 
ATOM     21  C   UNL     1      87.485  45.892  42.693  1.00  0.00     0.012 C 
ATOM     22  C   UNL     1      87.702  44.425  43.140  1.00  0.00    -0.035 C 
ATOM     23  C   UNL     1      88.790  43.805  42.239  1.00  0.00     0.011 C 
ATOM     24  C   UNL     1      88.212  44.376  44.594  1.00  0.00     0.011 C 
ATOM     25  C   UNL     1      86.402  43.597  43.023  1.00  0.00     0.007 C 
ATOM     26  C   UNL     1      85.326  44.305  42.201  1.00  0.00     0.020 C 
ATOM     27  C   UNL     1      86.671  48.408  41.516  1.00  0.00     0.016 C 
ATOM     28  C   UNL     1      82.693  49.999  43.937  1.00  0.00     0.016 C 
ATOM     29  C   UNL     1      84.186  52.175  46.319  1.00  0.00     0.012 C 
ENDROOT
BRANCH   1  30
ATOM     30  O   UNL     1      85.966  54.683  46.961  1.00  0.00    -0.462 OA
BRANCH  30  31
ATOM     31  C   UNL     1      85.524  55.965  47.067  1.00  0.00     0.302 C 
ATOM     32  O   UNL     1      86.126  56.966  46.708  1.00  0.00    -0.253 OA
ATOM     33  C   UNL     1      84.160  55.977  47.685  1.00  0.00     0.139 C 
ENDBRANCH  30  31
ENDBRANCH   1  30
BRANCH  19  34
ATOM     34  C   UNL     1      84.084  45.344  44.087  1.00  0.00     0.310 C 
ATOM     35  O   UNL     1      82.898  45.059  44.145  1.00  0.00    -0.252 OA
BRANCH  34  36
ATOM     36  O   UNL     1      84.780  45.452  45.238  1.00  0.00    -0.481 OA
ATOM     37  H   UNL     1      84.650  46.390  45.494  1.00  0.00     0.296 HD
ENDBRANCH  34  36
ENDBRANCH  19  34
TORSDOF 4
ENDMDL
MODEL 4
REMARK VINA RESULT:    -7.859      0.792      0.869
REMARK INTER + INTRA:          -6.485
REMARK INTER:                  -6.102
REMARK INTRA:                  -0.383
REMARK UNBOUND:                 2.983
REMARK SMILES CC(=O)O[C@H]1CC[C@@]2(C)C(CC[C@@]3(C)C4=CC[C@@]5(C(=O)O)CCC(C)(C)CC5[C@]4(C)CCC23)C1(C)C
REMARK SMILES IDX 5 1 6 2 7 3 8 4 10 5 34 6 35 7 36 8 11 9 12 10 13 11 33 12
REMARK SMILES IDX 32 13 31 14 29 15 15 16 16 17 17 18 18 19 28 20 27 21 24 22
REMARK SMILES IDX 25 23 26 24 23 25 22 26 30 27 14 28 9 29 4 30 2 31 3 32 1 33
REMARK SMILES IDX 19 34 20 35 21 36
REMARK H PARENT 21 37
ROOT
ATOM      1  C   UNL     1      86.994  45.270  42.422  1.00  0.00     0.182 C 
ATOM      2  C   UNL     1      85.690  45.982  42.093  1.00  0.00     0.046 C 
ATOM      3  C   UNL     1      85.348  47.191  42.977  1.00  0.00     0.011 C 
ATOM      4  C   UNL     1      86.548  48.017  43.555  1.00  0.00    -0.025 C 
ATOM      5  C   UNL     1      87.765  47.768  42.606  1.00  0.00     0.005 C 
ATOM      6  C   UNL     1      88.211  46.253  42.411  1.00  0.00     0.005 C 
ATOM      7  C   UNL     1      88.853  46.143  40.994  1.00  0.00     0.015 C 
ATOM      8  C   UNL     1      89.303  45.804  43.408  1.00  0.00     0.015 C 
ATOM      9  C   UNL     1      88.942  48.696  42.925  1.00  0.00     0.006 C 
ATOM     10  C   UNL     1      88.528  50.135  42.683  1.00  0.00     0.012 C 
ATOM     11  C   UNL     1      87.403  50.637  43.610  1.00  0.00    -0.008 C 
ATOM     12  C   UNL     1      86.201  49.597  43.767  1.00  0.00     0.005 C 
ATOM     13  C   UNL     1      84.919  50.131  43.093  1.00  0.00     0.006 C 
ATOM     14  C   UNL     1      85.221  50.706  41.720  1.00  0.00     0.012 C 
ATOM     15  C   UNL     1      85.941  52.076  41.857  1.00  0.00    -0.007 C 
ATOM     16  C   UNL     1      86.939  52.027  43.042  1.00  0.00    -0.062 C 
ATOM     17  C   UNL     1      87.382  53.206  43.524  1.00  0.00    -0.025 C 
ATOM     18  C   UNL     1      86.826  54.516  43.063  1.00  0.00     0.046 C 
ATOM     19  C   UNL     1      85.291  54.445  42.947  1.00  0.00     0.075 C 
ATOM     20  C   UNL     1      84.830  53.213  42.078  1.00  0.00     0.017 C 
ATOM     21  C   UNL     1      84.162  53.677  40.755  1.00  0.00     0.012 C 
ATOM     22  C   UNL     1      82.967  54.642  40.959  1.00  0.00    -0.035 C 
ATOM     23  C   UNL     1      82.668  55.325  39.608  1.00  0.00     0.011 C 
ATOM     24  C   UNL     1      81.708  53.859  41.377  1.00  0.00     0.011 C 
ATOM     25  C   UNL     1      83.281  55.719  42.023  1.00  0.00     0.007 C 
ATOM     26  C   UNL     1      84.767  55.786  42.370  1.00  0.00     0.020 C 
ATOM     27  C   UNL     1      86.713  52.329  40.534  1.00  0.00     0.016 C 
ATOM     28  C   UNL     1      88.027  50.819  45.030  1.00  0.00     0.016 C 
ATOM     29  C   UNL     1      86.825  47.474  44.990  1.00  0.00     0.012 C 
ENDROOT
BRANCH   1  30
ATOM     30  O   UNL     1      86.810  44.613  43.692  1.00  0.00    -0.462 OA
BRANCH  30  31
ATOM     31  C   UNL     1      87.415  43.408  43.874  1.00  0.00     0.302 C 
ATOM     32  O   UNL     1      87.893  42.994  44.920  1.00  0.00    -0.253 OA
ATOM     33  C   UNL     1      87.401  42.638  42.590  1.00  0.00     0.139 C 
ENDBRANCH  30  31
ENDBRANCH   1  30
BRANCH  19  34
ATOM     34  C   UNL     1      84.716  54.316  44.374  1.00  0.00     0.310 C 
ATOM     35  O   UNL     1      84.773  55.134  45.278  1.00  0.00    -0.252 OA
BRANCH  34  36
ATOM     36  O   UNL     1      84.132  53.124  44.618  1.00  0.00    -0.481 OA
ATOM     37  H   UNL     1      83.744  52.880  43.751  1.00  0.00     0.296 HD
ENDBRANCH  34  36
ENDBRANCH  19  34
TORSDOF 4
ENDMDL
MODEL 5
REMARK VINA RESULT:    -7.604      1.911      8.789
REMARK INTER + INTRA:          -6.177
REMARK INTER:                  -6.598
REMARK INTRA:                   0.421
REMARK UNBOUND:                 2.983
REMARK SMILES CC(=O)O[C@H]1CC[C@@]2(C)C(CC[C@@]3(C)C4=CC[C@@]5(C(=O)O)CCC(C)(C)CC5[C@]4(C)CCC23)C1(C)C
REMARK SMILES IDX 5 1 6 2 7 3 8 4 10 5 34 6 35 7 36 8 11 9 12 10 13 11 33 12
REMARK SMILES IDX 32 13 31 14 29 15 15 16 16 17 17 18 18 19 28 20 27 21 24 22
REMARK SMILES IDX 25 23 26 24 23 25 22 26 30 27 14 28 9 29 4 30 2 31 3 32 1 33
REMARK SMILES IDX 19 34 20 35 21 36
REMARK H PARENT 21 37
ROOT
ATOM      1  C   UNL     1      85.791  56.093  44.886  1.00  0.00     0.182 C 
ATOM      2  C   UNL     1      87.020  55.219  45.093  1.00  0.00     0.046 C 
ATOM      3  C   UNL     1      86.742  53.761  45.488  1.00  0.00     0.011 C 
ATOM      4  C   UNL     1      85.422  53.111  44.948  1.00  0.00    -0.025 C 
ATOM      5  C   UNL     1      85.023  53.907  43.662  1.00  0.00     0.005 C 
ATOM      6  C   UNL     1      84.807  55.473  43.838  1.00  0.00     0.005 C 
ATOM      7  C   UNL     1      85.146  56.139  42.470  1.00  0.00     0.015 C 
ATOM      8  C   UNL     1      83.344  55.860  44.147  1.00  0.00     0.015 C 
ATOM      9  C   UNL     1      83.874  53.233  42.904  1.00  0.00     0.006 C 
ATOM     10  C   UNL     1      84.326  51.871  42.412  1.00  0.00     0.012 C 
ATOM     11  C   UNL     1      84.661  50.870  43.535  1.00  0.00    -0.008 C 
ATOM     12  C   UNL     1      85.546  51.503  44.706  1.00  0.00     0.005 C 
ATOM     13  C   UNL     1      86.967  50.899  44.709  1.00  0.00     0.006 C 
ATOM     14  C   UNL     1      87.539  50.837  43.304  1.00  0.00     0.012 C 
ATOM     15  C   UNL     1      86.858  49.697  42.496  1.00  0.00    -0.007 C 
ATOM     16  C   UNL     1      85.350  49.636  42.848  1.00  0.00    -0.062 C 
ATOM     17  C   UNL     1      84.686  48.508  42.521  1.00  0.00    -0.025 C 
ATOM     18  C   UNL     1      85.386  47.295  41.993  1.00  0.00     0.046 C 
ATOM     19  C   UNL     1      86.684  47.031  42.779  1.00  0.00     0.075 C 
ATOM     20  C   UNL     1      87.595  48.316  42.847  1.00  0.00     0.017 C 
ATOM     21  C   UNL     1      88.915  48.111  42.056  1.00  0.00     0.012 C 
ATOM     22  C   UNL     1      89.733  46.874  42.504  1.00  0.00    -0.035 C 
ATOM     23  C   UNL     1      90.771  46.562  41.406  1.00  0.00     0.011 C 
ATOM     24  C   UNL     1      90.502  47.180  43.804  1.00  0.00     0.011 C 
ATOM     25  C   UNL     1      88.825  45.641  42.721  1.00  0.00     0.007 C 
ATOM     26  C   UNL     1      87.426  45.831  42.136  1.00  0.00     0.020 C 
ATOM     27  C   UNL     1      87.030  50.031  40.989  1.00  0.00     0.016 C 
ATOM     28  C   UNL     1      83.307  50.437  44.182  1.00  0.00     0.016 C 
ATOM     29  C   UNL     1      84.349  53.264  46.067  1.00  0.00     0.012 C 
ENDROOT
BRANCH   1  30
ATOM     30  O   UNL     1      85.188  56.290  46.180  1.00  0.00    -0.462 OA
BRANCH  30  31
ATOM     31  C   UNL     1      84.514  57.452  46.394  1.00  0.00     0.302 C 
ATOM     32  O   UNL     1      83.468  57.573  47.016  1.00  0.00    -0.253 OA
ATOM     33  C   UNL     1      85.254  58.588  45.758  1.00  0.00     0.139 C 
ENDBRANCH  30  31
ENDBRANCH   1  30
BRANCH  19  34
ATOM     34  C   UNL     1      86.290  46.599  44.209  1.00  0.00     0.310 C 
ATOM     35  O   UNL     1      86.098  45.466  44.620  1.00  0.00    -0.252 OA
BRANCH  34  36
ATOM     36  O   UNL     1      86.103  47.634  45.056  1.00  0.00    -0.481 OA
ATOM     37  H   UNL     1      85.198  47.943  44.837  1.00  0.00     0.296 HD
ENDBRANCH  34  36
ENDBRANCH  19  34
TORSDOF 4
ENDMDL
MODEL 6
REMARK VINA RESULT:    -7.089      2.310      4.348
REMARK INTER + INTRA:          -5.557
REMARK INTER:                  -5.106
REMARK INTRA:                  -0.451
REMARK UNBOUND:                 2.983
REMARK SMILES CC(=O)O[C@H]1CC[C@@]2(C)C(CC[C@@]3(C)C4=CC[C@@]5(C(=O)O)CCC(C)(C)CC5[C@]4(C)CCC23)C1(C)C
REMARK SMILES IDX 5 1 6 2 7 3 8 4 10 5 34 6 35 7 36 8 11 9 12 10 13 11 33 12
REMARK SMILES IDX 32 13 31 14 29 15 15 16 16 17 17 18 18 19 28 20 27 21 24 22
REMARK SMILES IDX 25 23 26 24 23 25 22 26 30 27 14 28 9 29 4 30 2 31 3 32 1 33
REMARK SMILES IDX 19 34 20 35 21 36
REMARK H PARENT 21 37
ROOT
ATOM      1  C   UNL     1      89.218  47.573  43.009  1.00  0.00     0.182 C 
ATOM      2  C   UNL     1      89.142  48.377  44.299  1.00  0.00     0.046 C 
ATOM      3  C   UNL     1      89.178  49.904  44.137  1.00  0.00     0.011 C 
ATOM      4  C   UNL     1      88.561  50.500  42.825  1.00  0.00    -0.025 C 
ATOM      5  C   UNL     1      87.533  49.448  42.293  1.00  0.00     0.005 C 
ATOM      6  C   UNL     1      88.101  47.992  41.997  1.00  0.00     0.005 C 
ATOM      7  C   UNL     1      86.924  46.990  42.203  1.00  0.00     0.015 C 
ATOM      8  C   UNL     1      88.569  47.802  40.536  1.00  0.00     0.015 C 
ATOM      9  C   UNL     1      86.690  50.002  41.139  1.00  0.00     0.006 C 
ATOM     10  C   UNL     1      85.856  51.165  41.639  1.00  0.00     0.012 C 
ATOM     11  C   UNL     1      86.679  52.382  42.108  1.00  0.00    -0.008 C 
ATOM     12  C   UNL     1      87.924  51.987  43.029  1.00  0.00     0.005 C 
ATOM     13  C   UNL     1      87.707  52.466  44.481  1.00  0.00     0.006 C 
ATOM     14  C   UNL     1      86.303  52.142  44.960  1.00  0.00     0.012 C 
ATOM     15  C   UNL     1      85.274  53.099  44.297  1.00  0.00    -0.007 C 
ATOM     16  C   UNL     1      85.675  53.356  42.822  1.00  0.00    -0.062 C 
ATOM     17  C   UNL     1      85.114  54.418  42.207  1.00  0.00    -0.025 C 
ATOM     18  C   UNL     1      84.269  55.411  42.942  1.00  0.00     0.046 C 
ATOM     19  C   UNL     1      84.899  55.760  44.303  1.00  0.00     0.075 C 
ATOM     20  C   UNL     1      85.236  54.466  45.138  1.00  0.00     0.017 C 
ATOM     21  C   UNL     1      84.354  54.373  46.412  1.00  0.00     0.012 C 
ATOM     22  C   UNL     1      84.442  55.617  47.330  1.00  0.00    -0.035 C 
ATOM     23  C   UNL     1      83.250  55.575  48.310  1.00  0.00     0.011 C 
ATOM     24  C   UNL     1      85.736  55.580  48.165  1.00  0.00     0.011 C 
ATOM     25  C   UNL     1      84.393  56.930  46.515  1.00  0.00     0.007 C 
ATOM     26  C   UNL     1      83.943  56.709  45.072  1.00  0.00     0.020 C 
ATOM     27  C   UNL     1      83.889  52.398  44.348  1.00  0.00     0.016 C 
ATOM     28  C   UNL     1      87.266  53.059  40.828  1.00  0.00     0.016 C 
ATOM     29  C   UNL     1      89.736  50.704  41.822  1.00  0.00     0.012 C 
ENDROOT
BRANCH   1  30
ATOM     30  O   UNL     1      90.550  47.742  42.483  1.00  0.00    -0.462 OA
BRANCH  30  31
ATOM     31  C   UNL     1      91.595  47.526  43.326  1.00  0.00     0.302 C 
ATOM     32  O   UNL     1      91.891  46.460  43.848  1.00  0.00    -0.253 OA
ATOM     33  C   UNL     1      92.357  48.800  43.520  1.00  0.00     0.139 C 
ENDBRANCH  30  31
ENDBRANCH   1  30
BRANCH  19  34
ATOM     34  C   UNL     1      86.196  56.554  44.032  1.00  0.00     0.310 C 
ATOM     35  O   UNL     1      87.344  56.208  44.262  1.00  0.00    -0.252 OA
BRANCH  34  36
ATOM     36  O   UNL     1      85.981  57.787  43.526  1.00  0.00    -0.481 OA
ATOM     37  H   UNL     1      85.169  58.082  43.988  1.00  0.00     0.296 HD
ENDBRANCH  34  36
ENDBRANCH  19  34
TORSDOF 4
ENDMDL
MODEL 7
REMARK VINA RESULT:    -6.404      2.253      8.578
REMARK INTER + INTRA:          -4.731
REMARK INTER:                  -5.504
REMARK INTRA:                   0.773
REMARK UNBOUND:                 2.983
REMARK SMILES CC(=O)O[C@H]1CC[C@@]2(C)C(CC[C@@]3(C)C4=CC[C@@]5(C(=O)O)CCC(C)(C)CC5[C@]4(C)CCC23)C1(C)C
REMARK SMILES IDX 5 1 6 2 7 3 8 4 10 5 34 6 35 7 36 8 11 9 12 10 13 11 33 12
REMARK SMILES IDX 32 13 31 14 29 15 15 16 16 17 17 18 18 19 28 20 27 21 24 22
REMARK SMILES IDX 25 23 26 24 23 25 22 26 30 27 14 28 9 29 4 30 2 31 3 32 1 33
REMARK SMILES IDX 19 34 20 35 21 36
REMARK H PARENT 21 37
ROOT
ATOM      1  C   UNL     1      85.164  56.374  46.271  1.00  0.00     0.182 C 
ATOM      2  C   UNL     1      86.135  55.337  46.815  1.00  0.00     0.046 C 
ATOM      3  C   UNL     1      85.895  53.891  46.356  1.00  0.00     0.011 C 
ATOM      4  C   UNL     1      85.275  53.686  44.931  1.00  0.00    -0.025 C 
ATOM      5  C   UNL     1      85.614  54.969  44.104  1.00  0.00     0.005 C 
ATOM      6  C   UNL     1      85.108  56.353  44.707  1.00  0.00     0.005 C 
ATOM      7  C   UNL     1      86.097  57.455  44.217  1.00  0.00     0.015 C 
ATOM      8  C   UNL     1      83.714  56.773  44.190  1.00  0.00     0.015 C 
ATOM      9  C   UNL     1      85.263  54.806  42.621  1.00  0.00     0.006 C 
ATOM     10  C   UNL     1      86.114  53.703  42.022  1.00  0.00     0.012 C 
ATOM     11  C   UNL     1      85.852  52.305  42.616  1.00  0.00    -0.008 C 
ATOM     12  C   UNL     1      85.755  52.303  44.211  1.00  0.00     0.005 C 
ATOM     13  C   UNL     1      86.960  51.567  44.835  1.00  0.00     0.006 C 
ATOM     14  C   UNL     1      88.261  51.991  44.177  1.00  0.00     0.012 C 
ATOM     15  C   UNL     1      88.377  51.362  42.761  1.00  0.00    -0.007 C 
ATOM     16  C   UNL     1      86.988  51.365  42.072  1.00  0.00    -0.062 C 
ATOM     17  C   UNL     1      86.827  50.555  41.006  1.00  0.00    -0.025 C 
ATOM     18  C   UNL     1      87.873  49.569  40.588  1.00  0.00     0.046 C 
ATOM     19  C   UNL     1      88.463  48.849  41.816  1.00  0.00     0.075 C 
ATOM     20  C   UNL     1      88.950  49.871  42.912  1.00  0.00     0.017 C 
ATOM     21  C   UNL     1      90.493  49.826  43.077  1.00  0.00     0.012 C 
ATOM     22  C   UNL     1      91.050  48.417  43.401  1.00  0.00    -0.035 C 
ATOM     23  C   UNL     1      92.571  48.431  43.141  1.00  0.00     0.011 C 
ATOM     24  C   UNL     1      90.832  48.081  44.889  1.00  0.00     0.011 C 
ATOM     25  C   UNL     1      90.387  47.329  42.526  1.00  0.00     0.007 C 
ATOM     26  C   UNL     1      89.609  47.915  41.348  1.00  0.00     0.020 C 
ATOM     27  C   UNL     1      89.366  52.239  41.945  1.00  0.00     0.016 C 
ATOM     28  C   UNL     1      84.463  51.832  42.082  1.00  0.00     0.016 C 
ATOM     29  C   UNL     1      83.737  53.523  45.123  1.00  0.00     0.012 C 
ENDROOT
BRANCH   1  30
ATOM     30  O   UNL     1      83.885  56.120  46.885  1.00  0.00    -0.462 OA
BRANCH  30  31
ATOM     31  C   UNL     1      83.871  55.421  48.052  1.00  0.00     0.302 C 
ATOM     32  O   UNL     1      84.630  55.582  48.996  1.00  0.00    -0.253 OA
ATOM     33  C   UNL     1      82.763  54.414  48.022  1.00  0.00     0.139 C 
ENDBRANCH  30  31
ENDBRANCH   1  30
BRANCH  19  34
ATOM     34  C   UNL     1      87.360  47.943  42.406  1.00  0.00     0.310 C 
ATOM     35  O   UNL     1      86.766  48.083  43.464  1.00  0.00    -0.252 OA
BRANCH  34  36
ATOM     36  O   UNL     1      87.088  46.857  41.652  1.00  0.00    -0.481 OA
ATOM     37  H   UNL     1      86.162  46.641  41.891  1.00  0.00     0.296 HD
ENDBRANCH  34  36
ENDBRANCH  19  34
TORSDOF 4
ENDMDL
