MODEL 1
REMARK VINA RESULT:    -7.860      0.000      0.000
REMARK INTER + INTRA:         -10.598
REMARK INTER:                 -10.135
REMARK INTRA:                  -0.462
REMARK UNBOUND:                -0.211
REMARK SMILES COc1cc(-c2oc3cc(O)c(OC)c(O)c3c(=O)c2OC)ccc1O
REMARK SMILES IDX 6 1 7 2 8 3 9 4 10 5 12 6 15 7 17 8 18 9 19 10 20 11 5 12
REMARK SMILES IDX 3 13 4 14 25 15 24 16 23 17 2 18 1 19 26 20 21 22 22 23
REMARK SMILES IDX 11 24 16 26 13 28 14 29
REMARK H PARENT 26 21 11 25 16 27
ROOT
ATOM      1  C   UNL     1      86.727  50.322  42.348  1.00  0.00     0.180 C 
ATOM      2  O   UNL     1      85.980  49.566  43.235  1.00  0.00    -0.452 OA
ATOM      3  C   UNL     1      86.167  48.211  43.273  1.00  0.00     0.146 A 
ATOM      4  C   UNL     1      85.390  47.501  44.181  1.00  0.00     0.098 A 
ATOM      5  C   UNL     1      85.538  46.123  44.261  1.00  0.00     0.165 A 
ATOM      6  C   UNL     1      86.446  45.416  43.454  1.00  0.00     0.203 A 
ATOM      7  C   UNL     1      87.225  46.142  42.544  1.00  0.00     0.177 A 
ATOM      8  C   UNL     1      87.079  47.544  42.460  1.00  0.00     0.115 A 
ATOM      9  C   UNL     1      87.880  48.350  41.523  1.00  0.00     0.239 C 
ATOM     10  O   UNL     1      88.683  47.786  40.783  1.00  0.00    -0.285 OA
ATOM     11  C   UNL     1      87.670  49.827  41.522  1.00  0.00     0.210 C 
ENDROOT
BRANCH   1  12
ATOM     12  C   UNL     1      86.408  51.764  42.428  1.00  0.00     0.025 A 
ATOM     13  C   UNL     1      85.151  53.676  41.592  1.00  0.00     0.161 A 
ATOM     14  C   UNL     1      85.453  52.313  41.550  1.00  0.00     0.062 A 
ATOM     15  C   UNL     1      85.815  54.486  42.519  1.00  0.00     0.157 A 
ATOM     16  C   UNL     1      86.766  53.968  43.387  1.00  0.00     0.051 A 
ATOM     17  C   UNL     1      87.065  52.607  43.338  1.00  0.00     0.016 A 
BRANCH  13  18
ATOM     18  O   UNL     1      84.243  54.330  40.799  1.00  0.00    -0.493 OA
ATOM     19  C   UNL     1      84.594  54.497  39.430  1.00  0.00     0.278 C 
ENDBRANCH  13  18
BRANCH  15  20
ATOM     20  O   UNL     1      85.540  55.824  42.585  1.00  0.00    -0.504 OA
ATOM     21  H   UNL     1      86.174  56.181  43.237  1.00  0.00     0.293 HD
ENDBRANCH  15  20
ENDBRANCH   1  12
BRANCH  11  22
ATOM     22  O   UNL     1      88.388  50.649  40.668  1.00  0.00    -0.490 OA
ATOM     23  C   UNL     1      89.698  50.969  41.131  1.00  0.00     0.278 C 
ENDBRANCH  11  22
BRANCH   5  24
ATOM     24  O   UNL     1      84.760  45.452  45.167  1.00  0.00    -0.504 OA
ATOM     25  H   UNL     1      84.006  46.049  45.345  1.00  0.00     0.293 HD
ENDBRANCH   5  24
BRANCH   7  26
ATOM     26  O   UNL     1      88.127  45.488  41.741  1.00  0.00    -0.504 OA
ATOM     27  H   UNL     1      87.638  44.978  41.056  1.00  0.00     0.293 HD
ENDBRANCH   7  26
BRANCH   6  28
ATOM     28  O   UNL     1      86.432  44.065  43.693  1.00  0.00    -0.490 OA
ATOM     29  C   UNL     1      87.620  43.452  44.174  1.00  0.00     0.278 C 
ENDBRANCH   6  28
TORSDOF 7
ENDMDL
MODEL 2
REMARK VINA RESULT:    -7.773      2.163      7.392
REMARK INTER + INTRA:         -10.483
REMARK INTER:                  -9.953
REMARK INTRA:                  -0.531
REMARK UNBOUND:                -0.211
REMARK SMILES COc1cc(-c2oc3cc(O)c(OC)c(O)c3c(=O)c2OC)ccc1O
REMARK SMILES IDX 6 1 7 2 8 3 9 4 10 5 12 6 15 7 17 8 18 9 19 10 20 11 5 12
REMARK SMILES IDX 3 13 4 14 25 15 24 16 23 17 2 18 1 19 26 20 21 22 22 23
REMARK SMILES IDX 11 24 16 26 13 28 14 29
REMARK H PARENT 26 21 11 25 16 27
ROOT
ATOM      1  C   UNL     1      87.932  50.955  42.521  1.00  0.00     0.180 C 
ATOM      2  O   UNL     1      87.713  51.244  43.857  1.00  0.00    -0.452 OA
ATOM      3  C   UNL     1      87.031  52.384  44.185  1.00  0.00     0.146 A 
ATOM      4  C   UNL     1      86.840  52.625  45.541  1.00  0.00     0.098 A 
ATOM      5  C   UNL     1      86.155  53.769  45.931  1.00  0.00     0.165 A 
ATOM      6  C   UNL     1      85.647  54.694  45.004  1.00  0.00     0.203 A 
ATOM      7  C   UNL     1      85.844  54.440  43.640  1.00  0.00     0.177 A 
ATOM      8  C   UNL     1      86.539  53.278  43.238  1.00  0.00     0.115 A 
ATOM      9  C   UNL     1      86.764  52.965  41.817  1.00  0.00     0.239 C 
ATOM     10  O   UNL     1      86.353  53.744  40.960  1.00  0.00    -0.285 OA
ATOM     11  C   UNL     1      87.491  51.703  41.491  1.00  0.00     0.210 C 
ENDROOT
BRANCH   1  12
ATOM     12  C   UNL     1      88.682  49.694  42.332  1.00  0.00     0.025 A 
ATOM     13  C   UNL     1      88.667  47.275  42.045  1.00  0.00     0.161 A 
ATOM     14  C   UNL     1      87.979  48.480  42.203  1.00  0.00     0.062 A 
ATOM     15  C   UNL     1      90.065  47.294  42.021  1.00  0.00     0.157 A 
ATOM     16  C   UNL     1      90.778  48.477  42.155  1.00  0.00     0.051 A 
ATOM     17  C   UNL     1      90.086  49.676  42.316  1.00  0.00     0.016 A 
BRANCH  13  18
ATOM     18  O   UNL     1      88.103  46.032  41.905  1.00  0.00    -0.493 OA
ATOM     19  C   UNL     1      86.905  45.788  42.634  1.00  0.00     0.278 C 
ENDBRANCH  13  18
BRANCH  15  20
ATOM     20  O   UNL     1      90.767  46.130  41.866  1.00  0.00    -0.504 OA
ATOM     21  H   UNL     1      91.700  46.406  41.787  1.00  0.00     0.293 HD
ENDBRANCH  15  20
ENDBRANCH   1  12
BRANCH  11  22
ATOM     22  O   UNL     1      87.739  51.343  40.175  1.00  0.00    -0.490 OA
ATOM     23  C   UNL     1      88.873  51.986  39.598  1.00  0.00     0.278 C 
ENDBRANCH  11  22
BRANCH   5  24
ATOM     24  O   UNL     1      85.980  53.977  47.274  1.00  0.00    -0.504 OA
ATOM     25  H   UNL     1      85.089  53.626  47.472  1.00  0.00     0.293 HD
ENDBRANCH   5  24
BRANCH   7  26
ATOM     26  O   UNL     1      85.359  55.318  42.703  1.00  0.00    -0.504 OA
ATOM     27  H   UNL     1      85.390  54.891  41.816  1.00  0.00     0.293 HD
ENDBRANCH   7  26
BRANCH   6  28
ATOM     28  O   UNL     1      85.006  55.750  45.601  1.00  0.00    -0.490 OA
ATOM     29  C   UNL     1      85.696  56.986  45.709  1.00  0.00     0.278 C 
ENDBRANCH   6  28
TORSDOF 7
ENDMDL
MODEL 3
REMARK VINA RESULT:    -7.670      3.037      8.103
REMARK INTER + INTRA:         -10.346
REMARK INTER:                  -9.864
REMARK INTRA:                  -0.483
REMARK UNBOUND:                -0.211
REMARK SMILES COc1cc(-c2oc3cc(O)c(OC)c(O)c3c(=O)c2OC)ccc1O
REMARK SMILES IDX 6 1 7 2 8 3 9 4 10 5 12 6 15 7 17 8 18 9 19 10 20 11 5 12
REMARK SMILES IDX 3 13 4 14 25 15 24 16 23 17 2 18 1 19 26 20 21 22 22 23
REMARK SMILES IDX 11 24 16 26 13 28 14 29
REMARK H PARENT 26 21 11 25 16 27
ROOT
ATOM      1  C   UNL     1      84.527  51.716  43.817  1.00  0.00     0.180 C 
ATOM      2  O   UNL     1      84.191  52.285  45.034  1.00  0.00    -0.452 OA
ATOM      3  C   UNL     1      84.581  53.571  45.293  1.00  0.00     0.146 A 
ATOM      4  C   UNL     1      84.217  54.093  46.529  1.00  0.00     0.098 A 
ATOM      5  C   UNL     1      84.587  55.394  46.846  1.00  0.00     0.165 A 
ATOM      6  C   UNL     1      85.319  56.204  45.962  1.00  0.00     0.203 A 
ATOM      7  C   UNL     1      85.679  55.669  44.718  1.00  0.00     0.177 A 
ATOM      8  C   UNL     1      85.304  54.347  44.391  1.00  0.00     0.115 A 
ATOM      9  C   UNL     1      85.653  53.743  43.094  1.00  0.00     0.239 C 
ATOM     10  O   UNL     1      86.302  54.400  42.284  1.00  0.00    -0.285 OA
ATOM     11  C   UNL     1      85.194  52.348  42.831  1.00  0.00     0.210 C 
ENDROOT
BRANCH   1  12
ATOM     12  C   UNL     1      84.037  50.326  43.691  1.00  0.00     0.025 A 
ATOM     13  C   UNL     1      84.462  47.935  43.877  1.00  0.00     0.161 A 
ATOM     14  C   UNL     1      84.896  49.255  44.009  1.00  0.00     0.062 A 
ATOM     15  C   UNL     1      83.162  47.694  43.421  1.00  0.00     0.157 A 
ATOM     16  C   UNL     1      82.303  48.733  43.093  1.00  0.00     0.051 A 
ATOM     17  C   UNL     1      82.743  50.049  43.224  1.00  0.00     0.016 A 
BRANCH  13  18
ATOM     18  O   UNL     1      85.195  46.809  44.157  1.00  0.00    -0.493 OA
ATOM     19  C   UNL     1      86.222  46.470  43.232  1.00  0.00     0.278 C 
ENDBRANCH  13  18
BRANCH  15  20
ATOM     20  O   UNL     1      82.708  46.411  43.282  1.00  0.00    -0.504 OA
ATOM     21  H   UNL     1      83.019  45.945  44.083  1.00  0.00     0.293 HD
ENDBRANCH  15  20
ENDBRANCH   1  12
BRANCH  11  22
ATOM     22  O   UNL     1      85.485  51.715  41.633  1.00  0.00    -0.490 OA
ATOM     23  C   UNL     1      86.823  51.235  41.536  1.00  0.00     0.278 C 
ENDBRANCH  11  22
BRANCH   5  24
ATOM     24  O   UNL     1      84.212  55.880  48.071  1.00  0.00    -0.504 OA
ATOM     25  H   UNL     1      84.354  56.847  48.015  1.00  0.00     0.293 HD
ENDBRANCH   5  24
BRANCH   7  26
ATOM     26  O   UNL     1      86.390  56.430  43.824  1.00  0.00    -0.504 OA
ATOM     27  H   UNL     1      87.212  56.752  44.259  1.00  0.00     0.293 HD
ENDBRANCH   7  26
BRANCH   6  28
ATOM     28  O   UNL     1      85.579  57.451  46.472  1.00  0.00    -0.490 OA
ATOM     29  C   UNL     1      84.871  58.560  45.938  1.00  0.00     0.278 C 
ENDBRANCH   6  28
TORSDOF 7
ENDMDL
MODEL 4
REMARK VINA RESULT:    -7.623      3.317      4.555
REMARK INTER + INTRA:         -10.284
REMARK INTER:                  -9.915
REMARK INTRA:                  -0.370
REMARK UNBOUND:                -0.211
REMARK SMILES COc1cc(-c2oc3cc(O)c(OC)c(O)c3c(=O)c2OC)ccc1O
REMARK SMILES IDX 6 1 7 2 8 3 9 4 10 5 12 6 15 7 17 8 18 9 19 10 20 11 5 12
REMARK SMILES IDX 3 13 4 14 25 15 24 16 23 17 2 18 1 19 26 20 21 22 22 23
REMARK SMILES IDX 11 24 16 26 13 28 14 29
REMARK H PARENT 26 21 11 25 16 27
ROOT
ATOM      1  C   UNL     1      84.436  52.265  43.469  1.00  0.00     0.180 C 
ATOM      2  O   UNL     1      83.108  51.899  43.330  1.00  0.00    -0.452 OA
ATOM      3  C   UNL     1      82.774  50.574  43.409  1.00  0.00     0.146 A 
ATOM      4  C   UNL     1      81.427  50.263  43.261  1.00  0.00     0.098 A 
ATOM      5  C   UNL     1      81.032  48.933  43.331  1.00  0.00     0.165 A 
ATOM      6  C   UNL     1      81.945  47.888  43.544  1.00  0.00     0.203 A 
ATOM      7  C   UNL     1      83.300  48.213  43.693  1.00  0.00     0.177 A 
ATOM      8  C   UNL     1      83.707  49.563  43.624  1.00  0.00     0.115 A 
ATOM      9  C   UNL     1      85.118  49.955  43.781  1.00  0.00     0.239 C 
ATOM     10  O   UNL     1      85.964  49.082  43.959  1.00  0.00    -0.285 OA
ATOM     11  C   UNL     1      85.447  51.409  43.714  1.00  0.00     0.210 C 
ENDROOT
BRANCH   1  12
ATOM     12  C   UNL     1      84.632  53.727  43.359  1.00  0.00     0.025 A 
ATOM     13  C   UNL     1      84.999  55.875  44.446  1.00  0.00     0.161 A 
ATOM     14  C   UNL     1      84.832  54.491  44.525  1.00  0.00     0.062 A 
ATOM     15  C   UNL     1      84.961  56.489  43.190  1.00  0.00     0.157 A 
ATOM     16  C   UNL     1      84.757  55.757  42.029  1.00  0.00     0.051 A 
ATOM     17  C   UNL     1      84.588  54.376  42.115  1.00  0.00     0.016 A 
BRANCH  13  18
ATOM     18  O   UNL     1      85.204  56.728  45.501  1.00  0.00    -0.493 OA
ATOM     19  C   UNL     1      84.170  56.798  46.477  1.00  0.00     0.278 C 
ENDBRANCH  13  18
BRANCH  15  20
ATOM     20  O   UNL     1      85.123  57.844  43.081  1.00  0.00    -0.504 OA
ATOM     21  H   UNL     1      84.375  58.228  43.579  1.00  0.00     0.293 HD
ENDBRANCH  15  20
ENDBRANCH   1  12
BRANCH  11  22
ATOM     22  O   UNL     1      86.753  51.851  43.854  1.00  0.00    -0.490 OA
ATOM     23  C   UNL     1      87.243  51.809  45.191  1.00  0.00     0.278 C 
ENDBRANCH  11  22
BRANCH   5  24
ATOM     24  O   UNL     1      79.698  48.659  43.184  1.00  0.00    -0.504 OA
ATOM     25  H   UNL     1      79.662  47.734  42.868  1.00  0.00     0.293 HD
ENDBRANCH   5  24
BRANCH   7  26
ATOM     26  O   UNL     1      84.223  47.220  43.908  1.00  0.00    -0.504 OA
ATOM     27  H   UNL     1      85.011  47.605  44.356  1.00  0.00     0.293 HD
ENDBRANCH   7  26
BRANCH   6  28
ATOM     28  O   UNL     1      81.346  46.654  43.578  1.00  0.00    -0.490 OA
ATOM     29  C   UNL     1      80.899  46.154  44.830  1.00  0.00     0.278 C 
ENDBRANCH   6  28
TORSDOF 7
ENDMDL
MODEL 5
REMARK VINA RESULT:    -7.558      3.151      8.416
REMARK INTER + INTRA:         -10.198
REMARK INTER:                  -9.703
REMARK INTRA:                  -0.495
REMARK UNBOUND:                -0.211
REMARK SMILES COc1cc(-c2oc3cc(O)c(OC)c(O)c3c(=O)c2OC)ccc1O
REMARK SMILES IDX 6 1 7 2 8 3 9 4 10 5 12 6 15 7 17 8 18 9 19 10 20 11 5 12
REMARK SMILES IDX 3 13 4 14 25 15 24 16 23 17 2 18 1 19 26 20 21 22 22 23
REMARK SMILES IDX 11 24 16 26 13 28 14 29
REMARK H PARENT 26 21 11 25 16 27
ROOT
ATOM      1  C   UNL     1      86.907  51.425  44.792  1.00  0.00     0.180 C 
ATOM      2  O   UNL     1      86.936  52.588  44.041  1.00  0.00    -0.452 OA
ATOM      3  C   UNL     1      86.599  53.772  44.641  1.00  0.00     0.146 A 
ATOM      4  C   UNL     1      86.646  54.908  43.842  1.00  0.00     0.098 A 
ATOM      5  C   UNL     1      86.312  56.136  44.398  1.00  0.00     0.165 A 
ATOM      6  C   UNL     1      85.928  56.274  45.742  1.00  0.00     0.203 A 
ATOM      7  C   UNL     1      85.887  55.122  46.539  1.00  0.00     0.177 A 
ATOM      8  C   UNL     1      86.226  53.871  45.978  1.00  0.00     0.115 A 
ATOM      9  C   UNL     1      86.204  52.634  46.778  1.00  0.00     0.239 C 
ATOM     10  O   UNL     1      85.865  52.690  47.957  1.00  0.00    -0.285 OA
ATOM     11  C   UNL     1      86.598  51.363  46.102  1.00  0.00     0.210 C 
ENDROOT
BRANCH   1  12
ATOM     12  C   UNL     1      87.294  50.235  44.002  1.00  0.00     0.025 A 
ATOM     13  C   UNL     1      89.038  48.912  42.935  1.00  0.00     0.161 A 
ATOM     14  C   UNL     1      88.651  50.016  43.696  1.00  0.00     0.062 A 
ATOM     15  C   UNL     1      88.054  48.029  42.479  1.00  0.00     0.157 A 
ATOM     16  C   UNL     1      86.710  48.230  42.760  1.00  0.00     0.051 A 
ATOM     17  C   UNL     1      86.330  49.337  43.519  1.00  0.00     0.016 A 
BRANCH  13  18
ATOM     18  O   UNL     1      90.321  48.585  42.574  1.00  0.00    -0.493 OA
ATOM     19  C   UNL     1      91.268  48.455  43.628  1.00  0.00     0.278 C 
ENDBRANCH  13  18
BRANCH  15  20
ATOM     20  O   UNL     1      88.402  46.937  41.732  1.00  0.00    -0.504 OA
ATOM     21  H   UNL     1      88.830  46.325  42.362  1.00  0.00     0.293 HD
ENDBRANCH  15  20
ENDBRANCH   1  12
BRANCH  11  22
ATOM     22  O   UNL     1      86.602  50.160  46.791  1.00  0.00    -0.490 OA
ATOM     23  C   UNL     1      87.730  49.980  47.643  1.00  0.00     0.278 C 
ENDBRANCH  11  22
BRANCH   5  24
ATOM     24  O   UNL     1      86.370  57.238  43.585  1.00  0.00    -0.504 OA
ATOM     25  H   UNL     1      87.307  57.518  43.603  1.00  0.00     0.293 HD
ENDBRANCH   5  24
BRANCH   7  26
ATOM     26  O   UNL     1      85.521  55.215  47.859  1.00  0.00    -0.504 OA
ATOM     27  H   UNL     1      84.566  55.449  47.912  1.00  0.00     0.293 HD
ENDBRANCH   7  26
BRANCH   6  28
ATOM     28  O   UNL     1      85.642  57.570  46.086  1.00  0.00    -0.490 OA
ATOM     29  C   UNL     1      84.279  57.962  46.173  1.00  0.00     0.278 C 
ENDBRANCH   6  28
TORSDOF 7
ENDMDL
MODEL 6
REMARK VINA RESULT:    -7.310      1.661      2.661
REMARK INTER + INTRA:          -9.871
REMARK INTER:                  -9.660
REMARK INTRA:                  -0.211
REMARK UNBOUND:                -0.211
REMARK SMILES COc1cc(-c2oc3cc(O)c(OC)c(O)c3c(=O)c2OC)ccc1O
REMARK SMILES IDX 6 1 7 2 8 3 9 4 10 5 12 6 15 7 17 8 18 9 19 10 20 11 5 12
REMARK SMILES IDX 3 13 4 14 25 15 24 16 23 17 2 18 1 19 26 20 21 22 22 23
REMARK SMILES IDX 11 24 16 26 13 28 14 29
REMARK H PARENT 26 21 11 25 16 27
ROOT
ATOM      1  C   UNL     1      86.107  51.920  42.611  1.00  0.00     0.180 C 
ATOM      2  O   UNL     1      85.518  50.945  43.398  1.00  0.00    -0.452 OA
ATOM      3  C   UNL     1      85.927  49.646  43.260  1.00  0.00     0.146 A 
ATOM      4  C   UNL     1      85.303  48.709  44.074  1.00  0.00     0.098 A 
ATOM      5  C   UNL     1      85.678  47.375  43.975  1.00  0.00     0.165 A 
ATOM      6  C   UNL     1      86.666  46.936  43.079  1.00  0.00     0.203 A 
ATOM      7  C   UNL     1      87.291  47.890  42.264  1.00  0.00     0.177 A 
ATOM      8  C   UNL     1      86.914  49.248  42.362  1.00  0.00     0.115 A 
ATOM      9  C   UNL     1      87.546  50.287  41.532  1.00  0.00     0.239 C 
ATOM     10  O   UNL     1      88.410  49.962  40.721  1.00  0.00    -0.285 OA
ATOM     11  C   UNL     1      87.095  51.697  41.722  1.00  0.00     0.210 C 
ENDROOT
BRANCH   1  12
ATOM     12  C   UNL     1      85.558  53.268  42.877  1.00  0.00     0.025 A 
ATOM     13  C   UNL     1      84.951  54.999  44.480  1.00  0.00     0.161 A 
ATOM     14  C   UNL     1      85.485  53.739  44.202  1.00  0.00     0.062 A 
ATOM     15  C   UNL     1      84.486  55.782  43.418  1.00  0.00     0.157 A 
ATOM     16  C   UNL     1      84.539  55.335  42.106  1.00  0.00     0.051 A 
ATOM     17  C   UNL     1      85.071  54.075  41.837  1.00  0.00     0.016 A 
BRANCH  13  18
ATOM     18  O   UNL     1      84.828  55.572  45.720  1.00  0.00    -0.493 OA
ATOM     19  C   UNL     1      86.018  56.091  46.304  1.00  0.00     0.278 C 
ENDBRANCH  13  18
BRANCH  15  20
ATOM     20  O   UNL     1      83.958  57.022  43.658  1.00  0.00    -0.504 OA
ATOM     21  H   UNL     1      84.656  57.650  43.389  1.00  0.00     0.293 HD
ENDBRANCH  15  20
ENDBRANCH   1  12
BRANCH  11  22
ATOM     22  O   UNL     1      87.645  52.728  40.977  1.00  0.00    -0.490 OA
ATOM     23  C   UNL     1      88.954  53.113  41.390  1.00  0.00     0.278 C 
ENDBRANCH  11  22
BRANCH   5  24
ATOM     24  O   UNL     1      85.045  46.475  44.793  1.00  0.00    -0.504 OA
ATOM     25  H   UNL     1      84.136  46.405  44.438  1.00  0.00     0.293 HD
ENDBRANCH   5  24
BRANCH   7  26
ATOM     26  O   UNL     1      88.266  47.502  41.379  1.00  0.00    -0.504 OA
ATOM     27  H   UNL     1      87.861  46.936  40.683  1.00  0.00     0.293 HD
ENDBRANCH   7  26
BRANCH   6  28
ATOM     28  O   UNL     1      86.882  45.583  43.142  1.00  0.00    -0.490 OA
ATOM     29  C   UNL     1      86.231  44.750  42.194  1.00  0.00     0.278 C 
ENDBRANCH   6  28
TORSDOF 7
ENDMDL
MODEL 7
REMARK VINA RESULT:    -7.275      2.573      7.667
REMARK INTER + INTRA:          -9.825
REMARK INTER:                  -9.307
REMARK INTRA:                  -0.518
REMARK UNBOUND:                -0.211
REMARK SMILES COc1cc(-c2oc3cc(O)c(OC)c(O)c3c(=O)c2OC)ccc1O
REMARK SMILES IDX 6 1 7 2 8 3 9 4 10 5 12 6 15 7 17 8 18 9 19 10 20 11 5 12
REMARK SMILES IDX 3 13 4 14 25 15 24 16 23 17 2 18 1 19 26 20 21 22 22 23
REMARK SMILES IDX 11 24 16 26 13 28 14 29
REMARK H PARENT 26 21 11 25 16 27
ROOT
ATOM      1  C   UNL     1      87.083  51.321  43.195  1.00  0.00     0.180 C 
ATOM      2  O   UNL     1      86.988  51.588  44.550  1.00  0.00    -0.452 OA
ATOM      3  C   UNL     1      86.545  52.819  44.953  1.00  0.00     0.146 A 
ATOM      4  C   UNL     1      86.469  53.033  46.324  1.00  0.00     0.098 A 
ATOM      5  C   UNL     1      86.027  54.265  46.789  1.00  0.00     0.165 A 
ATOM      6  C   UNL     1      85.654  55.306  45.923  1.00  0.00     0.203 A 
ATOM      7  C   UNL     1      85.732  55.078  44.543  1.00  0.00     0.177 A 
ATOM      8  C   UNL     1      86.180  53.827  44.065  1.00  0.00     0.115 A 
ATOM      9  C   UNL     1      86.274  53.538  42.624  1.00  0.00     0.239 C 
ATOM     10  O   UNL     1      85.971  54.415  41.818  1.00  0.00    -0.285 OA
ATOM     11  C   UNL     1      86.738  52.180  42.216  1.00  0.00     0.210 C 
ENDROOT
BRANCH   1  12
ATOM     12  C   UNL     1      87.578  49.953  42.923  1.00  0.00     0.025 A 
ATOM     13  C   UNL     1      89.454  48.437  42.587  1.00  0.00     0.161 A 
ATOM     14  C   UNL     1      88.965  49.715  42.863  1.00  0.00     0.062 A 
ATOM     15  C   UNL     1      88.543  47.399  42.368  1.00  0.00     0.157 A 
ATOM     16  C   UNL     1      87.173  47.612  42.414  1.00  0.00     0.051 A 
ATOM     17  C   UNL     1      86.691  48.891  42.687  1.00  0.00     0.016 A 
BRANCH  13  18
ATOM     18  O   UNL     1      90.775  48.075  42.505  1.00  0.00    -0.493 OA
ATOM     19  C   UNL     1      91.614  48.470  43.585  1.00  0.00     0.278 C 
ENDBRANCH  13  18
BRANCH  15  20
ATOM     20  O   UNL     1      88.992  46.135  42.097  1.00  0.00    -0.504 OA
ATOM     21  H   UNL     1      88.352  45.540  42.534  1.00  0.00     0.293 HD
ENDBRANCH  15  20
ENDBRANCH   1  12
BRANCH  11  22
ATOM     22  O   UNL     1      86.850  51.837  40.878  1.00  0.00    -0.490 OA
ATOM     23  C   UNL     1      88.059  52.273  40.262  1.00  0.00     0.278 C 
ENDBRANCH  11  22
BRANCH   5  24
ATOM     24  O   UNL     1      85.961  54.444  48.146  1.00  0.00    -0.504 OA
ATOM     25  H   UNL     1      86.886  54.373  48.457  1.00  0.00     0.293 HD
ENDBRANCH   5  24
BRANCH   7  26
ATOM     26  O   UNL     1      85.372  56.069  43.664  1.00  0.00    -0.504 OA
ATOM     27  H   UNL     1      86.144  56.661  43.512  1.00  0.00     0.293 HD
ENDBRANCH   7  26
BRANCH   6  28
ATOM     28  O   UNL     1      85.249  56.435  46.589  1.00  0.00    -0.490 OA
ATOM     29  C   UNL     1      83.865  56.752  46.603  1.00  0.00     0.278 C 
ENDBRANCH   6  28
TORSDOF 7
ENDMDL
MODEL 8
REMARK VINA RESULT:    -7.253      2.739      8.100
REMARK INTER + INTRA:          -9.796
REMARK INTER:                  -9.270
REMARK INTRA:                  -0.526
REMARK UNBOUND:                -0.211
REMARK SMILES COc1cc(-c2oc3cc(O)c(OC)c(O)c3c(=O)c2OC)ccc1O
REMARK SMILES IDX 6 1 7 2 8 3 9 4 10 5 12 6 15 7 17 8 18 9 19 10 20 11 5 12
REMARK SMILES IDX 3 13 4 14 25 15 24 16 23 17 2 18 1 19 26 20 21 22 22 23
REMARK SMILES IDX 11 24 16 26 13 28 14 29
REMARK H PARENT 26 21 11 25 16 27
ROOT
ATOM      1  C   UNL     1      86.931  51.289  44.332  1.00  0.00     0.180 C 
ATOM      2  O   UNL     1      86.726  52.376  43.499  1.00  0.00    -0.452 OA
ATOM      3  C   UNL     1      86.146  53.504  44.013  1.00  0.00     0.146 A 
ATOM      4  C   UNL     1      85.964  54.565  43.133  1.00  0.00     0.098 A 
ATOM      5  C   UNL     1      85.378  55.734  43.601  1.00  0.00     0.165 A 
ATOM      6  C   UNL     1      84.961  55.885  44.934  1.00  0.00     0.203 A 
ATOM      7  C   UNL     1      85.152  54.811  45.813  1.00  0.00     0.177 A 
ATOM      8  C   UNL     1      85.747  53.620  45.342  1.00  0.00     0.115 A 
ATOM      9  C   UNL     1      85.974  52.466  46.229  1.00  0.00     0.239 C 
ATOM     10  O   UNL     1      85.620  52.535  47.403  1.00  0.00    -0.285 OA
ATOM     11  C   UNL     1      86.630  51.259  45.645  1.00  0.00     0.210 C 
ENDROOT
BRANCH   1  12
ATOM     12  C   UNL     1      87.564  50.152  43.628  1.00  0.00     0.025 A 
ATOM     13  C   UNL     1      87.331  48.038  42.440  1.00  0.00     0.161 A 
ATOM     14  C   UNL     1      86.755  49.132  43.089  1.00  0.00     0.062 A 
ATOM     15  C   UNL     1      88.724  47.972  42.337  1.00  0.00     0.157 A 
ATOM     16  C   UNL     1      89.540  48.960  42.869  1.00  0.00     0.051 A 
ATOM     17  C   UNL     1      88.960  50.048  43.519  1.00  0.00     0.016 A 
BRANCH  13  18
ATOM     18  O   UNL     1      86.658  46.987  41.871  1.00  0.00    -0.493 OA
ATOM     19  C   UNL     1      86.002  46.091  42.762  1.00  0.00     0.278 C 
ENDBRANCH  13  18
BRANCH  15  20
ATOM     20  O   UNL     1      89.318  46.913  41.705  1.00  0.00    -0.504 OA
ATOM     21  H   UNL     1      89.067  46.131  42.234  1.00  0.00     0.293 HD
ENDBRANCH  15  20
ENDBRANCH   1  12
BRANCH  11  22
ATOM     22  O   UNL     1      86.876  50.136  46.419  1.00  0.00    -0.490 OA
ATOM     23  C   UNL     1      88.026  50.244  47.254  1.00  0.00     0.278 C 
ENDBRANCH  11  22
BRANCH   5  24
ATOM     24  O   UNL     1      85.214  56.762  42.710  1.00  0.00    -0.504 OA
ATOM     25  H   UNL     1      85.379  56.365  41.831  1.00  0.00     0.293 HD
ENDBRANCH   5  24
BRANCH   7  26
ATOM     26  O   UNL     1      84.762  54.921  47.124  1.00  0.00    -0.504 OA
ATOM     27  H   UNL     1      85.562  54.943  47.697  1.00  0.00     0.293 HD
ENDBRANCH   7  26
BRANCH   6  28
ATOM     28  O   UNL     1      84.409  57.116  45.184  1.00  0.00    -0.490 OA
ATOM     29  C   UNL     1      85.230  58.120  45.763  1.00  0.00     0.278 C 
ENDBRANCH   6  28
TORSDOF 7
ENDMDL
MODEL 9
REMARK VINA RESULT:    -7.186      2.744      8.053
REMARK INTER + INTRA:          -9.707
REMARK INTER:                  -9.438
REMARK INTRA:                  -0.269
REMARK UNBOUND:                -0.211
REMARK SMILES COc1cc(-c2oc3cc(O)c(OC)c(O)c3c(=O)c2OC)ccc1O
REMARK SMILES IDX 6 1 7 2 8 3 9 4 10 5 12 6 15 7 17 8 18 9 19 10 20 11 5 12
REMARK SMILES IDX 3 13 4 14 25 15 24 16 23 17 2 18 1 19 26 20 21 22 22 23
REMARK SMILES IDX 11 24 16 26 13 28 14 29
REMARK H PARENT 26 21 11 25 16 27
ROOT
ATOM      1  C   UNL     1      85.254  50.671  44.170  1.00  0.00     0.180 C 
ATOM      2  O   UNL     1      84.972  51.540  43.129  1.00  0.00    -0.452 OA
ATOM      3  C   UNL     1      85.211  52.876  43.299  1.00  0.00     0.146 A 
ATOM      4  C   UNL     1      84.910  53.703  42.223  1.00  0.00     0.098 A 
ATOM      5  C   UNL     1      85.131  55.069  42.341  1.00  0.00     0.165 A 
ATOM      6  C   UNL     1      85.649  55.649  43.511  1.00  0.00     0.203 A 
ATOM      7  C   UNL     1      85.952  54.806  44.589  1.00  0.00     0.177 A 
ATOM      8  C   UNL     1      85.729  53.416  44.474  1.00  0.00     0.115 A 
ATOM      9  C   UNL     1      86.037  52.490  45.576  1.00  0.00     0.239 C 
ATOM     10  O   UNL     1      86.482  52.940  46.629  1.00  0.00    -0.285 OA
ATOM     11  C   UNL     1      85.787  51.036  45.352  1.00  0.00     0.210 C 
ENDROOT
BRANCH   1  12
ATOM     12  C   UNL     1      84.940  49.265  43.831  1.00  0.00     0.025 A 
ATOM     13  C   UNL     1      83.275  47.537  43.415  1.00  0.00     0.161 A 
ATOM     14  C   UNL     1      83.596  48.863  43.713  1.00  0.00     0.062 A 
ATOM     15  C   UNL     1      84.312  46.615  43.240  1.00  0.00     0.157 A 
ATOM     16  C   UNL     1      85.643  46.987  43.361  1.00  0.00     0.051 A 
ATOM     17  C   UNL     1      85.957  48.312  43.662  1.00  0.00     0.016 A 
BRANCH  13  18
ATOM     18  O   UNL     1      82.012  47.022  43.269  1.00  0.00    -0.493 OA
ATOM     19  C   UNL     1      81.251  46.849  44.459  1.00  0.00     0.278 C 
ENDBRANCH  13  18
BRANCH  15  20
ATOM     20  O   UNL     1      84.029  45.309  42.946  1.00  0.00    -0.504 OA
ATOM     21  H   UNL     1      83.169  45.135  43.375  1.00  0.00     0.293 HD
ENDBRANCH  15  20
ENDBRANCH   1  12
BRANCH  11  22
ATOM     22  O   UNL     1      86.054  50.105  46.344  1.00  0.00    -0.490 OA
ATOM     23  C   UNL     1      87.439  49.953  46.645  1.00  0.00     0.278 C 
ENDBRANCH  11  22
BRANCH   5  24
ATOM     24  O   UNL     1      84.826  55.857  41.262  1.00  0.00    -0.504 OA
ATOM     25  H   UNL     1      85.620  55.824  40.691  1.00  0.00     0.293 HD
ENDBRANCH   5  24
BRANCH   7  26
ATOM     26  O   UNL     1      86.464  55.333  45.748  1.00  0.00    -0.504 OA
ATOM     27  H   UNL     1      87.037  56.103  45.525  1.00  0.00     0.293 HD
ENDBRANCH   7  26
BRANCH   6  28
ATOM     28  O   UNL     1      85.789  57.010  43.415  1.00  0.00    -0.490 OA
ATOM     29  C   UNL     1      84.958  57.833  44.221  1.00  0.00     0.278 C 
ENDBRANCH   6  28
TORSDOF 7
ENDMDL
