MODEL 1
REMARK VINA RESULT:    -9.294      0.000      0.000
REMARK INTER + INTRA:         -13.120
REMARK INTER:                 -12.380
REMARK INTRA:                  -0.741
REMARK UNBOUND:                -0.838
REMARK SMILES COc1c(O)cc(C2CC(=O)c3c(O)cc(O)cc3O2)cc1CC=C(C)C
REMARK SMILES IDX 3 1 4 2 6 3 7 4 21 5 22 6 2 7 1 8 5 9 23 11 24 12 25 13
REMARK SMILES IDX 26 14 27 15 8 16 9 17 20 18 10 19 19 20 11 21 12 22 18 23
REMARK SMILES IDX 13 24 16 25 15 26 14 27 17 29
REMARK H PARENT 5 10 14 28 17 30
ROOT
ATOM      1  C   UNL     1      88.198  51.841  40.536  1.00  0.00     0.163 A 
ATOM      2  C   UNL     1      87.035  52.569  40.802  1.00  0.00     0.158 A 
ATOM      3  C   UNL     1      86.472  52.585  42.071  1.00  0.00     0.057 A 
ATOM      4  C   UNL     1      87.091  51.886  43.117  1.00  0.00    -0.003 A 
ATOM      5  C   UNL     1      88.291  51.198  42.855  1.00  0.00     0.015 A 
ATOM      6  C   UNL     1      88.862  51.168  41.568  1.00  0.00     0.002 A 
ENDROOT
BRANCH   1   7
ATOM      7  O   UNL     1      88.701  51.866  39.259  1.00  0.00    -0.493 OA
ATOM      8  C   UNL     1      89.603  52.968  39.113  1.00  0.00     0.278 C 
ENDBRANCH   1   7
BRANCH   2   9
ATOM      9  O   UNL     1      86.430  53.302  39.819  1.00  0.00    -0.504 OA
ATOM     10  H   UNL     1      86.579  54.236  40.060  1.00  0.00     0.293 HD
ENDBRANCH   2   9
BRANCH   6  11
ATOM     11  C   UNL     1      90.175  50.449  41.354  1.00  0.00     0.067 C 
BRANCH  11  12
ATOM     12  C   UNL     1      90.046  48.954  41.495  1.00  0.00    -0.023 C 
ATOM     13  C   UNL     1      90.587  48.152  42.434  1.00  0.00    -0.080 C 
ATOM     14  C   UNL     1      91.440  48.608  43.585  1.00  0.00     0.039 C 
ATOM     15  C   UNL     1      90.355  46.664  42.393  1.00  0.00     0.039 C 
ENDBRANCH  11  12
ENDBRANCH   6  11
BRANCH   4  16
ATOM     16  C   UNL     1      86.520  51.907  44.522  1.00  0.00     0.211 C 
ATOM     17  C   UNL     1      87.508  51.301  45.510  1.00  0.00     0.131 C 
ATOM     18  O   UNL     1      86.206  53.263  44.876  1.00  0.00    -0.484 OA
ATOM     19  C   UNL     1      86.881  51.335  46.874  1.00  0.00     0.174 C 
ATOM     20  C   UNL     1      85.719  53.386  46.151  1.00  0.00     0.138 A 
ATOM     21  O   UNL     1      87.121  50.501  47.744  1.00  0.00    -0.294 OA
ATOM     22  C   UNL     1      85.990  52.471  47.170  1.00  0.00     0.102 A 
ATOM     23  C   UNL     1      84.939  54.511  46.417  1.00  0.00     0.093 A 
ATOM     24  C   UNL     1      85.448  52.665  48.446  1.00  0.00     0.133 A 
ATOM     25  C   UNL     1      84.406  54.693  47.691  1.00  0.00     0.123 A 
ATOM     26  C   UNL     1      84.650  53.776  48.710  1.00  0.00     0.093 A 
BRANCH  24  27
ATOM     27  O   UNL     1      85.668  51.805  49.489  1.00  0.00    -0.507 OA
ATOM     28  H   UNL     1      84.874  51.231  49.585  1.00  0.00     0.293 HD
ENDBRANCH  24  27
BRANCH  25  29
ATOM     29  O   UNL     1      83.639  55.800  47.904  1.00  0.00    -0.508 OA
ATOM     30  H   UNL     1      84.036  56.552  47.433  1.00  0.00     0.293 HD
ENDBRANCH  25  29
ENDBRANCH   4  16
TORSDOF 7
ENDMDL
MODEL 2
REMARK VINA RESULT:    -8.797      6.050      9.584
REMARK INTER + INTRA:         -12.463
REMARK INTER:                 -11.836
REMARK INTRA:                  -0.627
REMARK UNBOUND:                -0.838
REMARK SMILES COc1c(O)cc(C2CC(=O)c3c(O)cc(O)cc3O2)cc1CC=C(C)C
REMARK SMILES IDX 3 1 4 2 6 3 7 4 21 5 22 6 2 7 1 8 5 9 23 11 24 12 25 13
REMARK SMILES IDX 26 14 27 15 8 16 9 17 20 18 10 19 19 20 11 21 12 22 18 23
REMARK SMILES IDX 13 24 16 25 15 26 14 27 17 29
REMARK H PARENT 5 10 14 28 17 30
ROOT
ATOM      1  C   UNL     1      80.533  48.006  44.006  1.00  0.00     0.163 A 
ATOM      2  C   UNL     1      80.935  46.761  44.499  1.00  0.00     0.158 A 
ATOM      3  C   UNL     1      82.165  46.217  44.156  1.00  0.00     0.057 A 
ATOM      4  C   UNL     1      83.038  46.933  43.325  1.00  0.00    -0.003 A 
ATOM      5  C   UNL     1      82.650  48.209  42.875  1.00  0.00     0.015 A 
ATOM      6  C   UNL     1      81.399  48.764  43.210  1.00  0.00     0.002 A 
ENDROOT
BRANCH   1   7
ATOM      7  O   UNL     1      79.303  48.485  44.382  1.00  0.00    -0.493 OA
ATOM      8  C   UNL     1      79.424  49.233  45.597  1.00  0.00     0.278 C 
ENDBRANCH   1   7
BRANCH   2   9
ATOM      9  O   UNL     1      80.131  46.054  45.350  1.00  0.00    -0.504 OA
ATOM     10  H   UNL     1      79.420  45.687  44.792  1.00  0.00     0.293 HD
ENDBRANCH   2   9
BRANCH   6  11
ATOM     11  C   UNL     1      81.052  50.157  42.733  1.00  0.00     0.067 C 
BRANCH  11  12
ATOM     12  C   UNL     1      82.256  50.914  42.235  1.00  0.00    -0.023 C 
ATOM     13  C   UNL     1      82.309  52.163  41.731  1.00  0.00    -0.080 C 
ATOM     14  C   UNL     1      81.138  53.094  41.580  1.00  0.00     0.039 C 
ATOM     15  C   UNL     1      83.620  52.744  41.264  1.00  0.00     0.039 C 
ENDBRANCH  11  12
ENDBRANCH   6  11
BRANCH   4  16
ATOM     16  C   UNL     1      84.402  46.382  42.956  1.00  0.00     0.211 C 
ATOM     17  C   UNL     1      85.464  47.469  43.054  1.00  0.00     0.131 C 
ATOM     18  O   UNL     1      84.711  45.282  43.827  1.00  0.00    -0.484 OA
ATOM     19  C   UNL     1      86.782  46.868  42.662  1.00  0.00     0.174 C 
ATOM     20  C   UNL     1      85.948  44.743  43.593  1.00  0.00     0.138 A 
ATOM     21  O   UNL     1      87.681  47.512  42.125  1.00  0.00    -0.294 OA
ATOM     22  C   UNL     1      86.999  45.452  43.007  1.00  0.00     0.102 A 
ATOM     23  C   UNL     1      86.142  43.423  43.998  1.00  0.00     0.093 A 
ATOM     24  C   UNL     1      88.233  44.825  42.796  1.00  0.00     0.133 A 
ATOM     25  C   UNL     1      87.374  42.811  43.783  1.00  0.00     0.123 A 
ATOM     26  C   UNL     1      88.423  43.500  43.179  1.00  0.00     0.093 A 
BRANCH  24  27
ATOM     27  O   UNL     1      89.303  45.459  42.222  1.00  0.00    -0.507 OA
ATOM     28  H   UNL     1      89.780  44.806  41.661  1.00  0.00     0.293 HD
ENDBRANCH  24  27
BRANCH  25  29
ATOM     29  O   UNL     1      87.517  41.516  44.184  1.00  0.00    -0.508 OA
ATOM     30  H   UNL     1      88.346  41.431  44.684  1.00  0.00     0.293 HD
ENDBRANCH  25  29
ENDBRANCH   4  16
TORSDOF 7
ENDMDL
MODEL 3
REMARK VINA RESULT:    -8.720      2.654      7.279
REMARK INTER + INTRA:         -12.362
REMARK INTER:                 -11.602
REMARK INTRA:                  -0.759
REMARK UNBOUND:                -0.838
REMARK SMILES COc1c(O)cc(C2CC(=O)c3c(O)cc(O)cc3O2)cc1CC=C(C)C
REMARK SMILES IDX 3 1 4 2 6 3 7 4 21 5 22 6 2 7 1 8 5 9 23 11 24 12 25 13
REMARK SMILES IDX 26 14 27 15 8 16 9 17 20 18 10 19 19 20 11 21 12 22 18 23
REMARK SMILES IDX 13 24 16 25 15 26 14 27 17 29
REMARK H PARENT 5 10 14 28 17 30
ROOT
ATOM      1  C   UNL     1      85.808  56.525  45.114  1.00  0.00     0.163 A 
ATOM      2  C   UNL     1      85.544  56.381  43.748  1.00  0.00     0.158 A 
ATOM      3  C   UNL     1      85.692  55.155  43.115  1.00  0.00     0.057 A 
ATOM      4  C   UNL     1      86.082  54.029  43.853  1.00  0.00    -0.003 A 
ATOM      5  C   UNL     1      86.295  54.169  45.238  1.00  0.00     0.015 A 
ATOM      6  C   UNL     1      86.158  55.412  45.887  1.00  0.00     0.002 A 
ENDROOT
BRANCH   1   7
ATOM      7  O   UNL     1      85.646  57.765  45.679  1.00  0.00    -0.493 OA
ATOM      8  C   UNL     1      84.292  57.927  46.115  1.00  0.00     0.278 C 
ENDBRANCH   1   7
BRANCH   2   9
ATOM      9  O   UNL     1      85.115  57.445  43.005  1.00  0.00    -0.504 OA
ATOM     10  H   UNL     1      85.004  58.178  43.639  1.00  0.00     0.293 HD
ENDBRANCH   2   9
BRANCH   6  11
ATOM     11  C   UNL     1      86.357  55.494  47.384  1.00  0.00     0.067 C 
BRANCH  11  12
ATOM     12  C   UNL     1      85.778  54.308  48.111  1.00  0.00    -0.023 C 
ATOM     13  C   UNL     1      84.485  54.041  48.380  1.00  0.00    -0.080 C 
ATOM     14  C   UNL     1      83.315  54.893  47.973  1.00  0.00     0.039 C 
ATOM     15  C   UNL     1      84.104  52.799  49.144  1.00  0.00     0.039 C 
ENDBRANCH  11  12
ENDBRANCH   6  11
BRANCH   4  16
ATOM     16  C   UNL     1      86.223  52.668  43.199  1.00  0.00     0.211 C 
ATOM     17  C   UNL     1      87.504  52.598  42.379  1.00  0.00     0.131 C 
ATOM     18  O   UNL     1      86.210  51.658  44.220  1.00  0.00    -0.484 OA
ATOM     19  C   UNL     1      87.577  51.239  41.746  1.00  0.00     0.174 C 
ATOM     20  C   UNL     1      86.374  50.391  43.724  1.00  0.00     0.138 A 
ATOM     21  O   UNL     1      88.124  51.030  40.665  1.00  0.00    -0.294 OA
ATOM     22  C   UNL     1      87.011  50.115  42.512  1.00  0.00     0.102 A 
ATOM     23  C   UNL     1      85.891  49.345  44.509  1.00  0.00     0.093 A 
ATOM     24  C   UNL     1      87.131  48.792  42.072  1.00  0.00     0.133 A 
ATOM     25  C   UNL     1      86.018  48.033  44.060  1.00  0.00     0.123 A 
ATOM     26  C   UNL     1      86.631  47.746  42.843  1.00  0.00     0.093 A 
BRANCH  24  27
ATOM     27  O   UNL     1      87.738  48.451  40.893  1.00  0.00    -0.507 OA
ATOM     28  H   UNL     1      87.899  49.277  40.382  1.00  0.00     0.293 HD
ENDBRANCH  24  27
BRANCH  25  29
ATOM     29  O   UNL     1      85.521  47.042  44.854  1.00  0.00    -0.508 OA
ATOM     30  H   UNL     1      86.150  46.301  44.862  1.00  0.00     0.293 HD
ENDBRANCH  25  29
ENDBRANCH   4  16
TORSDOF 7
ENDMDL
MODEL 4
REMARK VINA RESULT:    -8.673      2.797      4.505
REMARK INTER + INTRA:         -12.299
REMARK INTER:                 -11.911
REMARK INTRA:                  -0.388
REMARK UNBOUND:                -0.838
REMARK SMILES COc1c(O)cc(C2CC(=O)c3c(O)cc(O)cc3O2)cc1CC=C(C)C
REMARK SMILES IDX 3 1 4 2 6 3 7 4 21 5 22 6 2 7 1 8 5 9 23 11 24 12 25 13
REMARK SMILES IDX 26 14 27 15 8 16 9 17 20 18 10 19 19 20 11 21 12 22 18 23
REMARK SMILES IDX 13 24 16 25 15 26 14 27 17 29
REMARK H PARENT 5 10 14 28 17 30
ROOT
ATOM      1  C   UNL     1      85.983  49.225  44.351  1.00  0.00     0.163 A 
ATOM      2  C   UNL     1      84.626  49.556  44.289  1.00  0.00     0.158 A 
ATOM      3  C   UNL     1      84.190  50.848  44.544  1.00  0.00     0.057 A 
ATOM      4  C   UNL     1      85.121  51.854  44.841  1.00  0.00    -0.003 A 
ATOM      5  C   UNL     1      86.490  51.527  44.850  1.00  0.00     0.015 A 
ATOM      6  C   UNL     1      86.941  50.214  44.603  1.00  0.00     0.002 A 
ENDROOT
BRANCH   1   7
ATOM      7  O   UNL     1      86.348  47.927  44.091  1.00  0.00    -0.493 OA
ATOM      8  C   UNL     1      86.386  47.708  42.676  1.00  0.00     0.278 C 
ENDBRANCH   1   7
BRANCH   2   9
ATOM      9  O   UNL     1      83.693  48.613  43.956  1.00  0.00    -0.504 OA
ATOM     10  H   UNL     1      83.118  49.039  43.292  1.00  0.00     0.293 HD
ENDBRANCH   2   9
BRANCH   6  11
ATOM     11  C   UNL     1      88.426  49.930  44.583  1.00  0.00     0.067 C 
BRANCH  11  12
ATOM     12  C   UNL     1      88.989  49.891  43.186  1.00  0.00    -0.023 C 
ATOM     13  C   UNL     1      90.077  49.232  42.740  1.00  0.00    -0.080 C 
ATOM     14  C   UNL     1      90.966  48.352  43.573  1.00  0.00     0.039 C 
ATOM     15  C   UNL     1      90.494  49.335  41.295  1.00  0.00     0.039 C 
ENDBRANCH  11  12
ENDBRANCH   6  11
BRANCH   4  16
ATOM     16  C   UNL     1      84.682  53.283  45.094  1.00  0.00     0.211 C 
ATOM     17  C   UNL     1      84.359  53.491  46.567  1.00  0.00     0.131 C 
ATOM     18  O   UNL     1      85.726  54.173  44.666  1.00  0.00    -0.484 OA
ATOM     19  C   UNL     1      83.917  54.913  46.751  1.00  0.00     0.174 C 
ATOM     20  C   UNL     1      85.434  55.492  44.895  1.00  0.00     0.138 A 
ATOM     21  O   UNL     1      83.112  55.261  47.612  1.00  0.00    -0.294 OA
ATOM     22  C   UNL     1      84.543  55.924  45.880  1.00  0.00     0.102 A 
ATOM     23  C   UNL     1      86.099  56.426  44.102  1.00  0.00     0.093 A 
ATOM     24  C   UNL     1      84.294  57.291  46.045  1.00  0.00     0.133 A 
ATOM     25  C   UNL     1      85.843  57.783  44.277  1.00  0.00     0.123 A 
ATOM     26  C   UNL     1      84.940  58.226  45.240  1.00  0.00     0.093 A 
BRANCH  24  27
ATOM     27  O   UNL     1      83.430  57.783  46.987  1.00  0.00    -0.507 OA
ATOM     28  H   UNL     1      83.469  57.194  47.775  1.00  0.00     0.293 HD
ENDBRANCH  24  27
BRANCH  25  29
ATOM     29  O   UNL     1      86.506  58.662  43.472  1.00  0.00    -0.508 OA
ATOM     30  H   UNL     1      85.953  58.857  42.697  1.00  0.00     0.293 HD
ENDBRANCH  25  29
ENDBRANCH   4  16
TORSDOF 7
ENDMDL
MODEL 5
REMARK VINA RESULT:    -8.654      3.640      5.983
REMARK INTER + INTRA:         -12.274
REMARK INTER:                 -11.594
REMARK INTRA:                  -0.680
REMARK UNBOUND:                -0.838
REMARK SMILES COc1c(O)cc(C2CC(=O)c3c(O)cc(O)cc3O2)cc1CC=C(C)C
REMARK SMILES IDX 3 1 4 2 6 3 7 4 21 5 22 6 2 7 1 8 5 9 23 11 24 12 25 13
REMARK SMILES IDX 26 14 27 15 8 16 9 17 20 18 10 19 19 20 11 21 12 22 18 23
REMARK SMILES IDX 13 24 16 25 15 26 14 27 17 29
REMARK H PARENT 5 10 14 28 17 30
ROOT
ATOM      1  C   UNL     1      86.048  49.419  44.265  1.00  0.00     0.163 A 
ATOM      2  C   UNL     1      86.954  50.350  44.784  1.00  0.00     0.158 A 
ATOM      3  C   UNL     1      86.577  51.665  45.018  1.00  0.00     0.057 A 
ATOM      4  C   UNL     1      85.259  52.069  44.762  1.00  0.00    -0.003 A 
ATOM      5  C   UNL     1      84.338  51.115  44.290  1.00  0.00     0.015 A 
ATOM      6  C   UNL     1      84.715  49.781  44.039  1.00  0.00     0.002 A 
ENDROOT
BRANCH   1   7
ATOM      7  O   UNL     1      86.486  48.136  44.054  1.00  0.00    -0.493 OA
ATOM      8  C   UNL     1      87.038  48.022  42.737  1.00  0.00     0.278 C 
ENDBRANCH   1   7
BRANCH   2   9
ATOM      9  O   UNL     1      88.234  49.980  45.091  1.00  0.00    -0.504 OA
ATOM     10  H   UNL     1      88.193  49.632  46.002  1.00  0.00     0.293 HD
ENDBRANCH   2   9
BRANCH   6  11
ATOM     11  C   UNL     1      83.673  48.789  43.574  1.00  0.00     0.067 C 
BRANCH  11  12
ATOM     12  C   UNL     1      82.330  49.430  43.334  1.00  0.00    -0.023 C 
ATOM     13  C   UNL     1      81.105  48.899  43.519  1.00  0.00    -0.080 C 
ATOM     14  C   UNL     1      80.821  47.519  44.042  1.00  0.00     0.039 C 
ATOM     15  C   UNL     1      79.869  49.702  43.201  1.00  0.00     0.039 C 
ENDBRANCH  11  12
ENDBRANCH   6  11
BRANCH   4  16
ATOM     16  C   UNL     1      84.805  53.490  45.035  1.00  0.00     0.211 C 
ATOM     17  C   UNL     1      84.496  53.679  46.514  1.00  0.00     0.131 C 
ATOM     18  O   UNL     1      85.834  54.397  44.606  1.00  0.00    -0.484 OA
ATOM     19  C   UNL     1      84.038  55.094  46.717  1.00  0.00     0.174 C 
ATOM     20  C   UNL     1      85.528  55.710  44.851  1.00  0.00     0.138 A 
ATOM     21  O   UNL     1      83.239  55.423  47.591  1.00  0.00    -0.294 OA
ATOM     22  C   UNL     1      84.643  56.121  45.851  1.00  0.00     0.102 A 
ATOM     23  C   UNL     1      86.174  56.661  44.061  1.00  0.00     0.093 A 
ATOM     24  C   UNL     1      84.379  57.484  46.033  1.00  0.00     0.133 A 
ATOM     25  C   UNL     1      85.902  58.013  44.253  1.00  0.00     0.123 A 
ATOM     26  C   UNL     1      85.005  58.435  45.231  1.00  0.00     0.093 A 
BRANCH  24  27
ATOM     27  O   UNL     1      83.519  57.955  46.989  1.00  0.00    -0.507 OA
ATOM     28  H   UNL     1      82.968  58.663  46.582  1.00  0.00     0.293 HD
ENDBRANCH  24  27
BRANCH  25  29
ATOM     29  O   UNL     1      86.546  58.908  43.451  1.00  0.00    -0.508 OA
ATOM     30  H   UNL     1      86.921  58.434  42.689  1.00  0.00     0.293 HD
ENDBRANCH  25  29
ENDBRANCH   4  16
TORSDOF 7
ENDMDL
MODEL 6
REMARK VINA RESULT:    -8.652      4.045      6.694
REMARK INTER + INTRA:         -12.271
REMARK INTER:                 -11.461
REMARK INTRA:                  -0.810
REMARK UNBOUND:                -0.838
REMARK SMILES COc1c(O)cc(C2CC(=O)c3c(O)cc(O)cc3O2)cc1CC=C(C)C
REMARK SMILES IDX 3 1 4 2 6 3 7 4 21 5 22 6 2 7 1 8 5 9 23 11 24 12 25 13
REMARK SMILES IDX 26 14 27 15 8 16 9 17 20 18 10 19 19 20 11 21 12 22 18 23
REMARK SMILES IDX 13 24 16 25 15 26 14 27 17 29
REMARK H PARENT 5 10 14 28 17 30
ROOT
ATOM      1  C   UNL     1      85.825  55.382  43.495  1.00  0.00     0.163 A 
ATOM      2  C   UNL     1      85.171  54.933  42.344  1.00  0.00     0.158 A 
ATOM      3  C   UNL     1      84.816  53.600  42.194  1.00  0.00     0.057 A 
ATOM      4  C   UNL     1      85.088  52.685  43.221  1.00  0.00    -0.003 A 
ATOM      5  C   UNL     1      85.700  53.153  44.399  1.00  0.00     0.015 A 
ATOM      6  C   UNL     1      86.073  54.503  44.555  1.00  0.00     0.002 A 
ENDROOT
BRANCH   1   7
ATOM      7  O   UNL     1      86.151  56.713  43.579  1.00  0.00    -0.493 OA
ATOM      8  C   UNL     1      85.008  57.466  44.001  1.00  0.00     0.278 C 
ENDBRANCH   1   7
BRANCH   2   9
ATOM      9  O   UNL     1      84.845  55.805  41.343  1.00  0.00    -0.504 OA
ATOM     10  H   UNL     1      84.611  56.641  41.789  1.00  0.00     0.293 HD
ENDBRANCH   2   9
BRANCH   6  11
ATOM     11  C   UNL     1      86.689  54.957  45.860  1.00  0.00     0.067 C 
BRANCH  11  12
ATOM     12  C   UNL     1      85.657  55.215  46.928  1.00  0.00    -0.023 C 
ATOM     13  C   UNL     1      85.209  54.373  47.880  1.00  0.00    -0.080 C 
ATOM     14  C   UNL     1      85.683  52.962  48.090  1.00  0.00     0.039 C 
ATOM     15  C   UNL     1      84.148  54.816  48.855  1.00  0.00     0.039 C 
ENDBRANCH  11  12
ENDBRANCH   6  11
BRANCH   4  16
ATOM     16  C   UNL     1      84.688  51.227  43.103  1.00  0.00     0.211 C 
ATOM     17  C   UNL     1      85.681  50.337  43.837  1.00  0.00     0.131 C 
ATOM     18  O   UNL     1      83.362  51.065  43.634  1.00  0.00    -0.484 OA
ATOM     19  C   UNL     1      85.240  48.912  43.670  1.00  0.00     0.174 C 
ATOM     20  C   UNL     1      82.928  49.766  43.606  1.00  0.00     0.138 A 
ATOM     21  O   UNL     1      86.024  47.965  43.644  1.00  0.00    -0.294 OA
ATOM     22  C   UNL     1      83.789  48.666  43.600  1.00  0.00     0.102 A 
ATOM     23  C   UNL     1      81.548  49.568  43.614  1.00  0.00     0.093 A 
ATOM     24  C   UNL     1      83.265  47.369  43.563  1.00  0.00     0.133 A 
ATOM     25  C   UNL     1      81.039  48.272  43.579  1.00  0.00     0.123 A 
ATOM     26  C   UNL     1      81.887  47.167  43.549  1.00  0.00     0.093 A 
BRANCH  24  27
ATOM     27  O   UNL     1      84.050  46.248  43.550  1.00  0.00    -0.507 OA
ATOM     28  H   UNL     1      84.191  45.961  44.482  1.00  0.00     0.293 HD
ENDBRANCH  24  27
BRANCH  25  29
ATOM     29  O   UNL     1      79.684  48.124  43.575  1.00  0.00    -0.508 OA
ATOM     30  H   UNL     1      79.278  48.958  43.285  1.00  0.00     0.293 HD
ENDBRANCH  25  29
ENDBRANCH   4  16
TORSDOF 7
ENDMDL
MODEL 7
REMARK VINA RESULT:    -8.574      2.539      4.680
REMARK INTER + INTRA:         -12.168
REMARK INTER:                 -11.471
REMARK INTRA:                  -0.697
REMARK UNBOUND:                -0.838
REMARK SMILES COc1c(O)cc(C2CC(=O)c3c(O)cc(O)cc3O2)cc1CC=C(C)C
REMARK SMILES IDX 3 1 4 2 6 3 7 4 21 5 22 6 2 7 1 8 5 9 23 11 24 12 25 13
REMARK SMILES IDX 26 14 27 15 8 16 9 17 20 18 10 19 19 20 11 21 12 22 18 23
REMARK SMILES IDX 13 24 16 25 15 26 14 27 17 29
REMARK H PARENT 5 10 14 28 17 30
ROOT
ATOM      1  C   UNL     1      87.166  49.472  43.565  1.00  0.00     0.163 A 
ATOM      2  C   UNL     1      86.301  49.551  44.660  1.00  0.00     0.158 A 
ATOM      3  C   UNL     1      85.727  50.757  45.036  1.00  0.00     0.057 A 
ATOM      4  C   UNL     1      85.991  51.917  44.294  1.00  0.00    -0.003 A 
ATOM      5  C   UNL     1      86.821  51.822  43.162  1.00  0.00     0.015 A 
ATOM      6  C   UNL     1      87.416  50.603  42.779  1.00  0.00     0.002 A 
ENDROOT
BRANCH   1   7
ATOM      7  O   UNL     1      87.702  48.249  43.248  1.00  0.00    -0.493 OA
ATOM      8  C   UNL     1      86.759  47.490  42.482  1.00  0.00     0.278 C 
ENDBRANCH   1   7
BRANCH   2   9
ATOM      9  O   UNL     1      85.982  48.432  45.379  1.00  0.00    -0.504 OA
ATOM     10  H   UNL     1      85.071  48.202  45.113  1.00  0.00     0.293 HD
ENDBRANCH   2   9
BRANCH   6  11
ATOM     11  C   UNL     1      88.264  50.551  41.528  1.00  0.00     0.067 C 
BRANCH  11  12
ATOM     12  C   UNL     1      89.214  51.717  41.424  1.00  0.00    -0.023 C 
ATOM     13  C   UNL     1      89.341  52.605  40.418  1.00  0.00    -0.080 C 
ATOM     14  C   UNL     1      88.513  52.627  39.163  1.00  0.00     0.039 C 
ATOM     15  C   UNL     1      90.373  53.701  40.492  1.00  0.00     0.039 C 
ENDBRANCH  11  12
ENDBRANCH   6  11
BRANCH   4  16
ATOM     16  C   UNL     1      85.358  53.246  44.660  1.00  0.00     0.211 C 
ATOM     17  C   UNL     1      85.020  53.289  46.144  1.00  0.00     0.131 C 
ATOM     18  O   UNL     1      86.263  54.305  44.307  1.00  0.00    -0.484 OA
ATOM     19  C   UNL     1      84.384  54.616  46.438  1.00  0.00     0.174 C 
ATOM     20  C   UNL     1      85.790  55.547  44.639  1.00  0.00     0.138 A 
ATOM     21  O   UNL     1      83.545  54.778  47.322  1.00  0.00    -0.294 OA
ATOM     22  C   UNL     1      84.856  55.771  45.653  1.00  0.00     0.102 A 
ATOM     23  C   UNL     1      86.312  56.626  43.925  1.00  0.00     0.093 A 
ATOM     24  C   UNL     1      84.418  57.072  45.925  1.00  0.00     0.133 A 
ATOM     25  C   UNL     1      85.868  57.916  44.207  1.00  0.00     0.123 A 
ATOM     26  C   UNL     1      84.920  58.149  45.200  1.00  0.00     0.093 A 
BRANCH  24  27
ATOM     27  O   UNL     1      83.501  57.361  46.900  1.00  0.00    -0.507 OA
ATOM     28  H   UNL     1      83.965  57.845  47.622  1.00  0.00     0.293 HD
ENDBRANCH  24  27
BRANCH  25  29
ATOM     29  O   UNL     1      86.395  58.939  43.477  1.00  0.00    -0.508 OA
ATOM     30  H   UNL     1      85.705  59.607  43.329  1.00  0.00     0.293 HD
ENDBRANCH  25  29
ENDBRANCH   4  16
TORSDOF 7
ENDMDL
MODEL 8
REMARK VINA RESULT:    -8.432      2.037      7.997
REMARK INTER + INTRA:         -11.981
REMARK INTER:                 -11.144
REMARK INTRA:                  -0.838
REMARK UNBOUND:                -0.838
REMARK SMILES COc1c(O)cc(C2CC(=O)c3c(O)cc(O)cc3O2)cc1CC=C(C)C
REMARK SMILES IDX 3 1 4 2 6 3 7 4 21 5 22 6 2 7 1 8 5 9 23 11 24 12 25 13
REMARK SMILES IDX 26 14 27 15 8 16 9 17 20 18 10 19 19 20 11 21 12 22 18 23
REMARK SMILES IDX 13 24 16 25 15 26 14 27 17 29
REMARK H PARENT 5 10 14 28 17 30
ROOT
ATOM      1  C   UNL     1      85.341  53.238  47.769  1.00  0.00     0.163 A 
ATOM      2  C   UNL     1      86.192  52.140  47.924  1.00  0.00     0.158 A 
ATOM      3  C   UNL     1      86.980  51.689  46.874  1.00  0.00     0.057 A 
ATOM      4  C   UNL     1      86.951  52.358  45.642  1.00  0.00    -0.003 A 
ATOM      5  C   UNL     1      86.133  53.495  45.508  1.00  0.00     0.015 A 
ATOM      6  C   UNL     1      85.322  53.953  46.566  1.00  0.00     0.002 A 
ENDROOT
BRANCH   1   7
ATOM      7  O   UNL     1      84.586  53.631  48.846  1.00  0.00    -0.493 OA
ATOM      8  C   UNL     1      83.311  52.979  48.809  1.00  0.00     0.278 C 
ENDBRANCH   1   7
BRANCH   2   9
ATOM      9  O   UNL     1      86.282  51.491  49.124  1.00  0.00    -0.504 OA
ATOM     10  H   UNL     1      86.112  50.551  48.926  1.00  0.00     0.293 HD
ENDBRANCH   2   9
BRANCH   6  11
ATOM     11  C   UNL     1      84.495  55.205  46.379  1.00  0.00     0.067 C 
BRANCH  11  12
ATOM     12  C   UNL     1      85.295  56.348  45.808  1.00  0.00    -0.023 C 
ATOM     13  C   UNL     1      85.217  56.891  44.577  1.00  0.00    -0.080 C 
ATOM     14  C   UNL     1      84.265  56.466  43.494  1.00  0.00     0.039 C 
ATOM     15  C   UNL     1      86.127  58.028  44.185  1.00  0.00     0.039 C 
ENDBRANCH  11  12
ENDBRANCH   6  11
BRANCH   4  16
ATOM     16  C   UNL     1      87.822  51.910  44.484  1.00  0.00     0.211 C 
ATOM     17  C   UNL     1      88.001  50.399  44.501  1.00  0.00     0.131 C 
ATOM     18  O   UNL     1      87.217  52.342  43.254  1.00  0.00    -0.484 OA
ATOM     19  C   UNL     1      88.882  50.021  43.345  1.00  0.00     0.174 C 
ATOM     20  C   UNL     1      87.916  51.947  42.144  1.00  0.00     0.138 A 
ATOM     21  O   UNL     1      89.637  49.052  43.364  1.00  0.00    -0.294 OA
ATOM     22  C   UNL     1      88.764  50.837  42.123  1.00  0.00     0.102 A 
ATOM     23  C   UNL     1      87.726  52.697  40.985  1.00  0.00     0.093 A 
ATOM     24  C   UNL     1      89.449  50.503  40.949  1.00  0.00     0.133 A 
ATOM     25  C   UNL     1      88.412  52.354  39.823  1.00  0.00     0.123 A 
ATOM     26  C   UNL     1      89.278  51.263  39.795  1.00  0.00     0.093 A 
BRANCH  24  27
ATOM     27  O   UNL     1      90.298  49.433  40.860  1.00  0.00    -0.507 OA
ATOM     28  H   UNL     1      90.191  49.030  39.967  1.00  0.00     0.293 HD
ENDBRANCH  24  27
BRANCH  25  29
ATOM     29  O   UNL     1      88.206  53.122  38.715  1.00  0.00    -0.508 OA
ATOM     30  H   UNL     1      88.305  52.566  37.924  1.00  0.00     0.293 HD
ENDBRANCH  25  29
ENDBRANCH   4  16
TORSDOF 7
ENDMDL
MODEL 9
REMARK VINA RESULT:    -8.381      2.850      4.304
REMARK INTER + INTRA:         -11.913
REMARK INTER:                 -11.196
REMARK INTRA:                  -0.717
REMARK UNBOUND:                -0.838
REMARK SMILES COc1c(O)cc(C2CC(=O)c3c(O)cc(O)cc3O2)cc1CC=C(C)C
REMARK SMILES IDX 3 1 4 2 6 3 7 4 21 5 22 6 2 7 1 8 5 9 23 11 24 12 25 13
REMARK SMILES IDX 26 14 27 15 8 16 9 17 20 18 10 19 19 20 11 21 12 22 18 23
REMARK SMILES IDX 13 24 16 25 15 26 14 27 17 29
REMARK H PARENT 5 10 14 28 17 30
ROOT
ATOM      1  C   UNL     1      85.542  47.750  43.233  1.00  0.00     0.163 A 
ATOM      2  C   UNL     1      84.478  48.444  43.816  1.00  0.00     0.158 A 
ATOM      3  C   UNL     1      84.619  49.764  44.222  1.00  0.00     0.057 A 
ATOM      4  C   UNL     1      85.836  50.430  44.021  1.00  0.00    -0.003 A 
ATOM      5  C   UNL     1      86.888  49.742  43.386  1.00  0.00     0.015 A 
ATOM      6  C   UNL     1      86.756  48.399  42.981  1.00  0.00     0.002 A 
ENDROOT
BRANCH   1   7
ATOM      7  O   UNL     1      85.337  46.445  42.857  1.00  0.00    -0.493 OA
ATOM      8  C   UNL     1      85.641  45.572  43.950  1.00  0.00     0.278 C 
ENDBRANCH   1   7
BRANCH   2   9
ATOM      9  O   UNL     1      83.261  47.844  43.984  1.00  0.00    -0.504 OA
ATOM     10  H   UNL     1      83.047  47.441  43.121  1.00  0.00     0.293 HD
ENDBRANCH   2   9
BRANCH   6  11
ATOM     11  C   UNL     1      87.904  47.723  42.264  1.00  0.00     0.067 C 
BRANCH  11  12
ATOM     12  C   UNL     1      89.164  48.549  42.283  1.00  0.00    -0.023 C 
ATOM     13  C   UNL     1      90.413  48.163  42.612  1.00  0.00    -0.080 C 
ATOM     14  C   UNL     1      90.818  46.773  43.019  1.00  0.00     0.039 C 
ATOM     15  C   UNL     1      91.550  49.152  42.588  1.00  0.00     0.039 C 
ENDBRANCH  11  12
ENDBRANCH   6  11
BRANCH   4  16
ATOM     16  C   UNL     1      86.016  51.881  44.425  1.00  0.00     0.211 C 
ATOM     17  C   UNL     1      86.074  52.776  43.195  1.00  0.00     0.131 C 
ATOM     18  O   UNL     1      84.930  52.261  45.285  1.00  0.00    -0.484 OA
ATOM     19  C   UNL     1      86.268  54.190  43.657  1.00  0.00     0.174 C 
ATOM     20  C   UNL     1      84.985  53.575  45.671  1.00  0.00     0.138 A 
ATOM     21  O   UNL     1      86.871  55.036  42.999  1.00  0.00    -0.294 OA
ATOM     22  C   UNL     1      85.640  54.566  44.936  1.00  0.00     0.102 A 
ATOM     23  C   UNL     1      84.318  53.909  46.849  1.00  0.00     0.093 A 
ATOM     24  C   UNL     1      85.656  55.885  45.403  1.00  0.00     0.133 A 
ATOM     25  C   UNL     1      84.341  55.226  47.302  1.00  0.00     0.123 A 
ATOM     26  C   UNL     1      85.010  56.219  46.591  1.00  0.00     0.093 A 
BRANCH  24  27
ATOM     27  O   UNL     1      86.283  56.904  44.737  1.00  0.00    -0.507 OA
ATOM     28  H   UNL     1      87.198  56.985  45.093  1.00  0.00     0.293 HD
ENDBRANCH  24  27
BRANCH  25  29
ATOM     29  O   UNL     1      83.687  55.507  48.464  1.00  0.00    -0.508 OA
ATOM     30  H   UNL     1      83.870  56.429  48.713  1.00  0.00     0.293 HD
ENDBRANCH  25  29
ENDBRANCH   4  16
TORSDOF 7
ENDMDL
