MODEL 1
REMARK VINA RESULT:    -7.979      0.000      0.000
REMARK INTER + INTRA:         -10.039
REMARK INTER:                  -9.652
REMARK INTRA:                  -0.387
REMARK UNBOUND:                -0.427
REMARK SMILES COc1cc(O)c2c(c1)OC(c1ccc(O)c(O)c1)CC2=O
REMARK SMILES IDX 3 1 9 2 8 3 10 4 11 5 20 6 21 7 22 8 7 9 5 10 4 11 2 12 1 13
REMARK SMILES IDX 6 14 12 16 13 17 19 18 14 19 17 20 15 21 18 22 16 24
REMARK H PARENT 6 15 18 23 16 25
ROOT
ATOM      1  C   UNL     1      84.631  54.441  47.965  1.00  0.00     0.126 A 
ATOM      2  C   UNL     1      85.714  54.424  47.085  1.00  0.00     0.093 A 
ATOM      3  C   UNL     1      85.865  55.421  46.120  1.00  0.00     0.138 A 
ATOM      4  O   UNL     1      86.956  55.286  45.299  1.00  0.00    -0.484 OA
ATOM      5  C   UNL     1      86.819  55.952  44.030  1.00  0.00     0.211 C 
ATOM      6  C   UNL     1      86.480  57.418  44.250  1.00  0.00     0.131 C 
ATOM      7  C   UNL     1      85.210  57.544  45.046  1.00  0.00     0.174 C 
ATOM      8  O   UNL     1      84.485  58.523  44.900  1.00  0.00    -0.294 OA
ATOM      9  C   UNL     1      84.948  56.473  46.042  1.00  0.00     0.102 A 
ATOM     10  C   UNL     1      83.860  56.487  46.923  1.00  0.00     0.133 A 
ATOM     11  C   UNL     1      83.698  55.475  47.878  1.00  0.00     0.093 A 
ENDROOT
BRANCH   1  12
ATOM     12  O   UNL     1      84.600  53.400  48.850  1.00  0.00    -0.496 OA
ATOM     13  C   UNL     1      85.610  52.407  48.722  1.00  0.00     0.278 C 
ENDBRANCH   1  12
BRANCH  10  14
ATOM     14  O   UNL     1      82.938  57.495  46.875  1.00  0.00    -0.507 OA
ATOM     15  H   UNL     1      82.296  57.412  47.598  1.00  0.00     0.293 HD
ENDBRANCH  10  14
BRANCH   5  16
ATOM     16  C   UNL     1      85.956  55.129  43.078  1.00  0.00    -0.003 A 
ATOM     17  C   UNL     1      84.859  55.757  42.444  1.00  0.00     0.011 A 
ATOM     18  C   UNL     1      86.175  53.766  42.826  1.00  0.00     0.057 A 
ATOM     19  C   UNL     1      84.019  55.057  41.572  1.00  0.00     0.050 A 
ATOM     20  C   UNL     1      85.332  53.076  41.961  1.00  0.00     0.157 A 
ATOM     21  C   UNL     1      84.265  53.713  41.336  1.00  0.00     0.157 A 
BRANCH  20  22
ATOM     22  O   UNL     1      85.562  51.750  41.729  1.00  0.00    -0.504 OA
ATOM     23  H   UNL     1      84.796  51.294  42.132  1.00  0.00     0.293 HD
ENDBRANCH  20  22
BRANCH  21  24
ATOM     24  O   UNL     1      83.481  52.970  40.497  1.00  0.00    -0.504 OA
ATOM     25  H   UNL     1      83.645  52.030  40.684  1.00  0.00     0.293 HD
ENDBRANCH  21  24
ENDBRANCH   5  16
TORSDOF 5
ENDMDL
MODEL 2
REMARK VINA RESULT:    -7.677      1.500      6.052
REMARK INTER + INTRA:          -9.675
REMARK INTER:                  -9.199
REMARK INTRA:                  -0.476
REMARK UNBOUND:                -0.427
REMARK SMILES COc1cc(O)c2c(c1)OC(c1ccc(O)c(O)c1)CC2=O
REMARK SMILES IDX 3 1 9 2 8 3 10 4 11 5 20 6 21 7 22 8 7 9 5 10 4 11 2 12 1 13
REMARK SMILES IDX 6 14 12 16 13 17 19 18 14 19 17 20 15 21 18 22 16 24
REMARK H PARENT 6 15 18 23 16 25
ROOT
ATOM      1  C   UNL     1      83.008  54.129  41.211  1.00  0.00     0.126 A 
ATOM      2  C   UNL     1      83.762  55.215  41.658  1.00  0.00     0.093 A 
ATOM      3  C   UNL     1      84.978  55.017  42.314  1.00  0.00     0.138 A 
ATOM      4  O   UNL     1      85.619  56.158  42.725  1.00  0.00    -0.484 OA
ATOM      5  C   UNL     1      86.531  55.956  43.820  1.00  0.00     0.211 C 
ATOM      6  C   UNL     1      87.532  54.868  43.463  1.00  0.00     0.131 C 
ATOM      7  C   UNL     1      86.813  53.587  43.137  1.00  0.00     0.174 C 
ATOM      8  O   UNL     1      87.357  52.506  43.339  1.00  0.00    -0.294 OA
ATOM      9  C   UNL     1      85.476  53.725  42.505  1.00  0.00     0.102 A 
ATOM     10  C   UNL     1      84.716  52.636  42.060  1.00  0.00     0.133 A 
ATOM     11  C   UNL     1      83.486  52.835  41.419  1.00  0.00     0.093 A 
ENDROOT
BRANCH   1  12
ATOM     12  O   UNL     1      81.835  54.465  40.597  1.00  0.00    -0.496 OA
ATOM     13  C   UNL     1      80.628  54.129  41.271  1.00  0.00     0.278 C 
ENDBRANCH   1  12
BRANCH  10  14
ATOM     14  O   UNL     1      85.165  51.357  42.232  1.00  0.00    -0.507 OA
ATOM     15  H   UNL     1      85.233  51.138  43.175  1.00  0.00     0.293 HD
ENDBRANCH  10  14
BRANCH   5  16
ATOM     16  C   UNL     1      85.776  55.860  45.143  1.00  0.00    -0.003 A 
ATOM     17  C   UNL     1      86.287  55.017  46.155  1.00  0.00     0.011 A 
ATOM     18  C   UNL     1      84.575  56.544  45.392  1.00  0.00     0.057 A 
ATOM     19  C   UNL     1      85.636  54.871  47.384  1.00  0.00     0.050 A 
ATOM     20  C   UNL     1      83.933  56.390  46.617  1.00  0.00     0.157 A 
ATOM     21  C   UNL     1      84.457  55.565  47.607  1.00  0.00     0.157 A 
BRANCH  20  22
ATOM     22  O   UNL     1      82.766  57.064  46.841  1.00  0.00    -0.504 OA
ATOM     23  H   UNL     1      82.260  56.484  47.445  1.00  0.00     0.293 HD
ENDBRANCH  20  22
BRANCH  21  24
ATOM     24  O   UNL     1      83.769  55.466  48.785  1.00  0.00    -0.504 OA
ATOM     25  H   UNL     1      83.861  54.555  49.112  1.00  0.00     0.293 HD
ENDBRANCH  21  24
ENDBRANCH   5  16
TORSDOF 5
ENDMDL
MODEL 3
REMARK VINA RESULT:    -7.573      2.498      6.434
REMARK INTER + INTRA:          -9.549
REMARK INTER:                  -9.093
REMARK INTRA:                  -0.456
REMARK UNBOUND:                -0.427
REMARK SMILES COc1cc(O)c2c(c1)OC(c1ccc(O)c(O)c1)CC2=O
REMARK SMILES IDX 3 1 9 2 8 3 10 4 11 5 20 6 21 7 22 8 7 9 5 10 4 11 2 12 1 13
REMARK SMILES IDX 6 14 12 16 13 17 19 18 14 19 17 20 15 21 18 22 16 24
REMARK H PARENT 6 15 18 23 16 25
ROOT
ATOM      1  C   UNL     1      88.193  51.107  41.812  1.00  0.00     0.126 A 
ATOM      2  C   UNL     1      86.942  51.199  42.423  1.00  0.00     0.093 A 
ATOM      3  C   UNL     1      85.952  52.031  41.897  1.00  0.00     0.138 A 
ATOM      4  O   UNL     1      84.771  52.055  42.595  1.00  0.00    -0.484 OA
ATOM      5  C   UNL     1      83.996  53.252  42.394  1.00  0.00     0.211 C 
ATOM      6  C   UNL     1      83.756  53.467  40.908  1.00  0.00     0.131 C 
ATOM      7  C   UNL     1      85.067  53.564  40.178  1.00  0.00     0.174 C 
ATOM      8  O   UNL     1      85.154  54.230  39.151  1.00  0.00    -0.294 OA
ATOM      9  C   UNL     1      86.189  52.761  40.729  1.00  0.00     0.102 A 
ATOM     10  C   UNL     1      87.447  52.671  40.120  1.00  0.00     0.133 A 
ATOM     11  C   UNL     1      88.447  51.852  40.660  1.00  0.00     0.093 A 
ENDROOT
BRANCH   1  12
ATOM     12  O   UNL     1      89.071  50.266  42.437  1.00  0.00    -0.496 OA
ATOM     13  C   UNL     1      90.129  49.731  41.652  1.00  0.00     0.278 C 
ENDBRANCH   1  12
BRANCH  10  14
ATOM     14  O   UNL     1      87.720  53.374  38.980  1.00  0.00    -0.507 OA
ATOM     15  H   UNL     1      88.555  53.078  38.584  1.00  0.00     0.293 HD
ENDBRANCH  10  14
BRANCH   5  16
ATOM     16  C   UNL     1      84.553  54.402  43.227  1.00  0.00    -0.003 A 
ATOM     17  C   UNL     1      84.958  54.141  44.556  1.00  0.00     0.011 A 
ATOM     18  C   UNL     1      84.651  55.719  42.751  1.00  0.00     0.057 A 
ATOM     19  C   UNL     1      85.462  55.153  45.380  1.00  0.00     0.050 A 
ATOM     20  C   UNL     1      85.150  56.720  43.578  1.00  0.00     0.157 A 
ATOM     21  C   UNL     1      85.556  56.443  44.879  1.00  0.00     0.157 A 
BRANCH  20  22
ATOM     22  O   UNL     1      85.238  57.995  43.096  1.00  0.00    -0.504 OA
ATOM     23  H   UNL     1      85.713  58.489  43.794  1.00  0.00     0.293 HD
ENDBRANCH  20  22
BRANCH  21  24
ATOM     24  O   UNL     1      86.038  57.478  45.632  1.00  0.00    -0.504 OA
ATOM     25  H   UNL     1      85.984  58.289  45.098  1.00  0.00     0.293 HD
ENDBRANCH  21  24
ENDBRANCH   5  16
TORSDOF 5
ENDMDL
MODEL 4
REMARK VINA RESULT:    -7.537      2.367      3.297
REMARK INTER + INTRA:          -9.506
REMARK INTER:                  -9.103
REMARK INTRA:                  -0.403
REMARK UNBOUND:                -0.427
REMARK SMILES COc1cc(O)c2c(c1)OC(c1ccc(O)c(O)c1)CC2=O
REMARK SMILES IDX 3 1 9 2 8 3 10 4 11 5 20 6 21 7 22 8 7 9 5 10 4 11 2 12 1 13
REMARK SMILES IDX 6 14 12 16 13 17 19 18 14 19 17 20 15 21 18 22 16 24
REMARK H PARENT 6 15 18 23 16 25
ROOT
ATOM      1  C   UNL     1      84.474  54.768  47.247  1.00  0.00     0.126 A 
ATOM      2  C   UNL     1      85.019  53.679  46.566  1.00  0.00     0.093 A 
ATOM      3  C   UNL     1      85.280  53.751  45.197  1.00  0.00     0.138 A 
ATOM      4  O   UNL     1      85.796  52.612  44.634  1.00  0.00    -0.484 OA
ATOM      5  C   UNL     1      85.559  52.499  43.218  1.00  0.00     0.211 C 
ATOM      6  C   UNL     1      86.076  53.740  42.508  1.00  0.00     0.131 C 
ATOM      7  C   UNL     1      85.404  54.969  43.054  1.00  0.00     0.174 C 
ATOM      8  O   UNL     1      85.247  55.955  42.341  1.00  0.00    -0.294 OA
ATOM      9  C   UNL     1      85.029  54.931  44.491  1.00  0.00     0.102 A 
ATOM     10  C   UNL     1      84.478  56.023  45.175  1.00  0.00     0.133 A 
ATOM     11  C   UNL     1      84.197  55.942  46.545  1.00  0.00     0.093 A 
ENDROOT
BRANCH   1  12
ATOM     12  O   UNL     1      84.258  54.557  48.580  1.00  0.00    -0.496 OA
ATOM     13  C   UNL     1      84.085  53.210  49.005  1.00  0.00     0.278 C 
ENDBRANCH   1  12
BRANCH  10  14
ATOM     14  O   UNL     1      84.212  57.192  44.520  1.00  0.00    -0.507 OA
ATOM     15  H   UNL     1      84.966  57.800  44.577  1.00  0.00     0.293 HD
ENDBRANCH  10  14
BRANCH   5  16
ATOM     16  C   UNL     1      84.132  52.031  42.945  1.00  0.00    -0.003 A 
ATOM     17  C   UNL     1      83.699  50.813  43.516  1.00  0.00     0.011 A 
ATOM     18  C   UNL     1      83.238  52.733  42.122  1.00  0.00     0.057 A 
ATOM     19  C   UNL     1      82.410  50.319  43.293  1.00  0.00     0.050 A 
ATOM     20  C   UNL     1      81.959  52.232  41.903  1.00  0.00     0.157 A 
ATOM     21  C   UNL     1      81.544  51.038  42.484  1.00  0.00     0.157 A 
BRANCH  20  22
ATOM     22  O   UNL     1      81.103  52.930  41.100  1.00  0.00    -0.504 OA
ATOM     23  H   UNL     1      80.327  52.343  40.999  1.00  0.00     0.293 HD
ENDBRANCH  20  22
BRANCH  21  24
ATOM     24  O   UNL     1      80.271  50.610  42.223  1.00  0.00    -0.504 OA
ATOM     25  H   UNL     1      80.312  49.972  41.491  1.00  0.00     0.293 HD
ENDBRANCH  21  24
ENDBRANCH   5  16
TORSDOF 5
ENDMDL
MODEL 5
REMARK VINA RESULT:    -7.444      4.407      6.419
REMARK INTER + INTRA:          -9.394
REMARK INTER:                  -9.041
REMARK INTRA:                  -0.353
REMARK UNBOUND:                -0.427
REMARK SMILES COc1cc(O)c2c(c1)OC(c1ccc(O)c(O)c1)CC2=O
REMARK SMILES IDX 3 1 9 2 8 3 10 4 11 5 20 6 21 7 22 8 7 9 5 10 4 11 2 12 1 13
REMARK SMILES IDX 6 14 12 16 13 17 19 18 14 19 17 20 15 21 18 22 16 24
REMARK H PARENT 6 15 18 23 16 25
ROOT
ATOM      1  C   UNL     1      84.987  47.326  43.505  1.00  0.00     0.126 A 
ATOM      2  C   UNL     1      86.238  47.869  43.801  1.00  0.00     0.093 A 
ATOM      3  C   UNL     1      86.372  49.222  44.119  1.00  0.00     0.138 A 
ATOM      4  O   UNL     1      87.652  49.644  44.371  1.00  0.00    -0.484 OA
ATOM      5  C   UNL     1      87.855  51.054  44.163  1.00  0.00     0.211 C 
ATOM      6  C   UNL     1      86.849  51.846  44.983  1.00  0.00     0.131 C 
ATOM      7  C   UNL     1      85.447  51.458  44.601  1.00  0.00     0.174 C 
ATOM      8  O   UNL     1      84.532  52.268  44.706  1.00  0.00    -0.294 OA
ATOM      9  C   UNL     1      85.246  50.048  44.178  1.00  0.00     0.102 A 
ATOM     10  C   UNL     1      83.992  49.503  43.877  1.00  0.00     0.133 A 
ATOM     11  C   UNL     1      83.862  48.150  43.537  1.00  0.00     0.093 A 
ENDROOT
BRANCH   1  12
ATOM     12  O   UNL     1      85.002  45.994  43.199  1.00  0.00    -0.496 OA
ATOM     13  C   UNL     1      85.398  45.096  44.228  1.00  0.00     0.278 C 
ENDBRANCH   1  12
BRANCH  10  14
ATOM     14  O   UNL     1      82.867  50.279  43.917  1.00  0.00    -0.507 OA
ATOM     15  H   UNL     1      82.491  50.296  44.811  1.00  0.00     0.293 HD
ENDBRANCH  10  14
BRANCH   5  16
ATOM     16  C   UNL     1      88.006  51.365  42.676  1.00  0.00    -0.003 A 
ATOM     17  C   UNL     1      89.065  50.759  41.962  1.00  0.00     0.011 A 
ATOM     18  C   UNL     1      87.165  52.254  41.988  1.00  0.00     0.057 A 
ATOM     19  C   UNL     1      89.270  51.013  40.603  1.00  0.00     0.050 A 
ATOM     20  C   UNL     1      87.379  52.503  40.636  1.00  0.00     0.157 A 
ATOM     21  C   UNL     1      88.418  51.888  39.946  1.00  0.00     0.157 A 
BRANCH  20  22
ATOM     22  O   UNL     1      86.550  53.371  39.984  1.00  0.00    -0.504 OA
ATOM     23  H   UNL     1      85.757  53.428  40.554  1.00  0.00     0.293 HD
ENDBRANCH  20  22
BRANCH  21  24
ATOM     24  O   UNL     1      88.564  52.182  38.618  1.00  0.00    -0.504 OA
ATOM     25  H   UNL     1      89.279  51.627  38.263  1.00  0.00     0.293 HD
ENDBRANCH  21  24
ENDBRANCH   5  16
TORSDOF 5
ENDMDL
MODEL 6
REMARK VINA RESULT:    -7.316      2.605      6.566
REMARK INTER + INTRA:          -9.240
REMARK INTER:                  -8.751
REMARK INTRA:                  -0.489
REMARK UNBOUND:                -0.427
REMARK SMILES COc1cc(O)c2c(c1)OC(c1ccc(O)c(O)c1)CC2=O
REMARK SMILES IDX 3 1 9 2 8 3 10 4 11 5 20 6 21 7 22 8 7 9 5 10 4 11 2 12 1 13
REMARK SMILES IDX 6 14 12 16 13 17 19 18 14 19 17 20 15 21 18 22 16 24
REMARK H PARENT 6 15 18 23 16 25
ROOT
ATOM      1  C   UNL     1      82.713  51.959  42.170  1.00  0.00     0.126 A 
ATOM      2  C   UNL     1      83.897  52.650  42.427  1.00  0.00     0.093 A 
ATOM      3  C   UNL     1      84.851  52.131  43.304  1.00  0.00     0.138 A 
ATOM      4  O   UNL     1      85.964  52.909  43.493  1.00  0.00    -0.484 OA
ATOM      5  C   UNL     1      86.645  52.665  44.737  1.00  0.00     0.211 C 
ATOM      6  C   UNL     1      86.987  51.188  44.857  1.00  0.00     0.131 C 
ATOM      7  C   UNL     1      85.736  50.357  44.774  1.00  0.00     0.174 C 
ATOM      8  O   UNL     1      85.676  49.274  45.346  1.00  0.00    -0.294 OA
ATOM      9  C   UNL     1      84.647  50.890  43.915  1.00  0.00     0.102 A 
ATOM     10  C   UNL     1      83.456  50.199  43.660  1.00  0.00     0.133 A 
ATOM     11  C   UNL     1      82.490  50.731  42.795  1.00  0.00     0.093 A 
ENDROOT
BRANCH   1  12
ATOM     12  O   UNL     1      81.863  52.586  41.303  1.00  0.00    -0.496 OA
ATOM     13  C   UNL     1      81.922  54.006  41.248  1.00  0.00     0.278 C 
ENDBRANCH   1  12
BRANCH  10  14
ATOM     14  O   UNL     1      83.216  48.987  44.243  1.00  0.00    -0.507 OA
ATOM     15  H   UNL     1      82.524  49.058  44.919  1.00  0.00     0.293 HD
ENDBRANCH  10  14
BRANCH   5  16
ATOM     16  C   UNL     1      85.924  53.353  45.893  1.00  0.00    -0.003 A 
ATOM     17  C   UNL     1      86.014  52.783  47.183  1.00  0.00     0.011 A 
ATOM     18  C   UNL     1      85.144  54.509  45.732  1.00  0.00     0.057 A 
ATOM     19  C   UNL     1      85.365  53.353  48.282  1.00  0.00     0.050 A 
ATOM     20  C   UNL     1      84.499  55.067  46.831  1.00  0.00     0.157 A 
ATOM     21  C   UNL     1      84.608  54.500  48.095  1.00  0.00     0.157 A 
BRANCH  20  22
ATOM     22  O   UNL     1      83.744  56.192  46.654  1.00  0.00    -0.504 OA
ATOM     23  H   UNL     1      82.860  55.951  46.996  1.00  0.00     0.293 HD
ENDBRANCH  20  22
BRANCH  21  24
ATOM     24  O   UNL     1      83.947  55.107  49.127  1.00  0.00    -0.504 OA
ATOM     25  H   UNL     1      84.557  55.734  49.550  1.00  0.00     0.293 HD
ENDBRANCH  21  24
ENDBRANCH   5  16
TORSDOF 5
ENDMDL
MODEL 7
REMARK VINA RESULT:    -7.291      3.462      5.451
REMARK INTER + INTRA:          -9.210
REMARK INTER:                  -8.731
REMARK INTRA:                  -0.479
REMARK UNBOUND:                -0.427
REMARK SMILES COc1cc(O)c2c(c1)OC(c1ccc(O)c(O)c1)CC2=O
REMARK SMILES IDX 3 1 9 2 8 3 10 4 11 5 20 6 21 7 22 8 7 9 5 10 4 11 2 12 1 13
REMARK SMILES IDX 6 14 12 16 13 17 19 18 14 19 17 20 15 21 18 22 16 24
REMARK H PARENT 6 15 18 23 16 25
ROOT
ATOM      1  C   UNL     1      82.694  50.891  43.100  1.00  0.00     0.126 A 
ATOM      2  C   UNL     1      83.731  51.247  43.964  1.00  0.00     0.093 A 
ATOM      3  C   UNL     1      84.576  52.316  43.661  1.00  0.00     0.138 A 
ATOM      4  O   UNL     1      85.570  52.558  44.575  1.00  0.00    -0.484 OA
ATOM      5  C   UNL     1      86.708  53.252  44.032  1.00  0.00     0.211 C 
ATOM      6  C   UNL     1      86.256  54.542  43.365  1.00  0.00     0.131 C 
ATOM      7  C   UNL     1      85.258  54.243  42.280  1.00  0.00     0.174 C 
ATOM      8  O   UNL     1      85.164  54.986  41.307  1.00  0.00    -0.294 OA
ATOM      9  C   UNL     1      84.375  53.070  42.502  1.00  0.00     0.102 A 
ATOM     10  C   UNL     1      83.337  52.709  41.633  1.00  0.00     0.133 A 
ATOM     11  C   UNL     1      82.502  51.623  41.927  1.00  0.00     0.093 A 
ENDROOT
BRANCH   1  12
ATOM     12  O   UNL     1      81.953  49.820  43.511  1.00  0.00    -0.496 OA
ATOM     13  C   UNL     1      82.583  48.545  43.487  1.00  0.00     0.278 C 
ENDBRANCH   1  12
BRANCH  10  14
ATOM     14  O   UNL     1      83.112  53.416  40.486  1.00  0.00    -0.507 OA
ATOM     15  H   UNL     1      82.828  52.829  39.767  1.00  0.00     0.293 HD
ENDBRANCH  10  14
BRANCH   5  16
ATOM     16  C   UNL     1      87.606  52.293  43.254  1.00  0.00    -0.003 A 
ATOM     17  C   UNL     1      87.863  51.015  43.800  1.00  0.00     0.011 A 
ATOM     18  C   UNL     1      88.219  52.631  42.038  1.00  0.00     0.057 A 
ATOM     19  C   UNL     1      88.689  50.094  43.148  1.00  0.00     0.050 A 
ATOM     20  C   UNL     1      89.043  51.710  41.398  1.00  0.00     0.157 A 
ATOM     21  C   UNL     1      89.275  50.451  41.943  1.00  0.00     0.157 A 
BRANCH  20  22
ATOM     22  O   UNL     1      89.631  52.057  40.215  1.00  0.00    -0.504 OA
ATOM     23  H   UNL     1      90.570  52.206  40.443  1.00  0.00     0.293 HD
ENDBRANCH  20  22
BRANCH  21  24
ATOM     24  O   UNL     1      90.095  49.599  41.255  1.00  0.00    -0.504 OA
ATOM     25  H   UNL     1      90.035  49.821  40.311  1.00  0.00     0.293 HD
ENDBRANCH  21  24
ENDBRANCH   5  16
TORSDOF 5
ENDMDL
MODEL 8
REMARK VINA RESULT:    -7.180      3.890      6.760
REMARK INTER + INTRA:          -9.076
REMARK INTER:                  -8.604
REMARK INTRA:                  -0.472
REMARK UNBOUND:                -0.427
REMARK SMILES COc1cc(O)c2c(c1)OC(c1ccc(O)c(O)c1)CC2=O
REMARK SMILES IDX 3 1 9 2 8 3 10 4 11 5 20 6 21 7 22 8 7 9 5 10 4 11 2 12 1 13
REMARK SMILES IDX 6 14 12 16 13 17 19 18 14 19 17 20 15 21 18 22 16 24
REMARK H PARENT 6 15 18 23 16 25
ROOT
ATOM      1  C   UNL     1      89.326  51.899  40.535  1.00  0.00     0.126 A 
ATOM      2  C   UNL     1      88.627  52.859  41.267  1.00  0.00     0.093 A 
ATOM      3  C   UNL     1      88.081  52.547  42.513  1.00  0.00     0.138 A 
ATOM      4  O   UNL     1      87.399  53.566  43.130  1.00  0.00    -0.484 OA
ATOM      5  C   UNL     1      86.423  53.120  44.090  1.00  0.00     0.211 C 
ATOM      6  C   UNL     1      87.084  52.209  45.112  1.00  0.00     0.131 C 
ATOM      7  C   UNL     1      87.719  51.031  44.426  1.00  0.00     0.174 C 
ATOM      8  O   UNL     1      87.827  49.959  45.014  1.00  0.00    -0.294 OA
ATOM      9  C   UNL     1      88.255  51.274  43.063  1.00  0.00     0.102 A 
ATOM     10  C   UNL     1      88.953  50.310  42.324  1.00  0.00     0.133 A 
ATOM     11  C   UNL     1      89.483  50.618  41.064  1.00  0.00     0.093 A 
ENDROOT
BRANCH   1  12
ATOM     12  O   UNL     1      89.796  52.335  39.328  1.00  0.00    -0.496 OA
ATOM     13  C   UNL     1      90.588  53.516  39.327  1.00  0.00     0.278 C 
ENDBRANCH   1  12
BRANCH  10  14
ATOM     14  O   UNL     1      89.139  49.051  42.822  1.00  0.00    -0.507 OA
ATOM     15  H   UNL     1      88.640  48.927  43.645  1.00  0.00     0.293 HD
ENDBRANCH  10  14
BRANCH   5  16
ATOM     16  C   UNL     1      85.153  52.645  43.389  1.00  0.00    -0.003 A 
ATOM     17  C   UNL     1      84.448  51.549  43.935  1.00  0.00     0.011 A 
ATOM     18  C   UNL     1      84.668  53.222  42.205  1.00  0.00     0.057 A 
ATOM     19  C   UNL     1      83.287  51.053  43.334  1.00  0.00     0.050 A 
ATOM     20  C   UNL     1      83.513  52.721  41.612  1.00  0.00     0.157 A 
ATOM     21  C   UNL     1      82.825  51.649  42.170  1.00  0.00     0.157 A 
BRANCH  20  22
ATOM     22  O   UNL     1      83.057  53.296  40.461  1.00  0.00    -0.504 OA
ATOM     23  H   UNL     1      82.894  52.543  39.858  1.00  0.00     0.293 HD
ENDBRANCH  20  22
BRANCH  21  24
ATOM     24  O   UNL     1      81.697  51.212  41.531  1.00  0.00    -0.504 OA
ATOM     25  H   UNL     1      81.971  50.690  40.758  1.00  0.00     0.293 HD
ENDBRANCH  21  24
ENDBRANCH   5  16
TORSDOF 5
ENDMDL
MODEL 9
REMARK VINA RESULT:    -7.169      4.499      7.338
REMARK INTER + INTRA:          -9.062
REMARK INTER:                  -8.636
REMARK INTRA:                  -0.427
REMARK UNBOUND:                -0.427
REMARK SMILES COc1cc(O)c2c(c1)OC(c1ccc(O)c(O)c1)CC2=O
REMARK SMILES IDX 3 1 9 2 8 3 10 4 11 5 20 6 21 7 22 8 7 9 5 10 4 11 2 12 1 13
REMARK SMILES IDX 6 14 12 16 13 17 19 18 14 19 17 20 15 21 18 22 16 24
REMARK H PARENT 6 15 18 23 16 25
ROOT
ATOM      1  C   UNL     1      88.917  51.679  41.658  1.00  0.00     0.126 A 
ATOM      2  C   UNL     1      88.220  51.857  42.853  1.00  0.00     0.093 A 
ATOM      3  C   UNL     1      87.441  50.828  43.385  1.00  0.00     0.138 A 
ATOM      4  O   UNL     1      86.786  51.128  44.553  1.00  0.00    -0.484 OA
ATOM      5  C   UNL     1      85.619  50.320  44.793  1.00  0.00     0.211 C 
ATOM      6  C   UNL     1      85.990  48.847  44.739  1.00  0.00     0.131 C 
ATOM      7  C   UNL     1      86.591  48.512  43.401  1.00  0.00     0.174 C 
ATOM      8  O   UNL     1      86.476  47.381  42.939  1.00  0.00    -0.294 OA
ATOM      9  C   UNL     1      87.373  49.589  42.742  1.00  0.00     0.102 A 
ATOM     10  C   UNL     1      88.069  49.413  41.540  1.00  0.00     0.133 A 
ATOM     11  C   UNL     1      88.835  50.453  40.996  1.00  0.00     0.093 A 
ENDROOT
BRANCH   1  12
ATOM     12  O   UNL     1      89.630  52.770  41.246  1.00  0.00    -0.496 OA
ATOM     13  C   UNL     1      89.951  52.853  39.863  1.00  0.00     0.278 C 
ENDBRANCH   1  12
BRANCH  10  14
ATOM     14  O   UNL     1      88.024  48.219  40.877  1.00  0.00    -0.507 OA
ATOM     15  H   UNL     1      87.381  47.619  41.288  1.00  0.00     0.293 HD
ENDBRANCH  10  14
BRANCH   5  16
ATOM     16  C   UNL     1      84.438  50.817  43.963  1.00  0.00    -0.003 A 
ATOM     17  C   UNL     1      83.336  49.954  43.771  1.00  0.00     0.011 A 
ATOM     18  C   UNL     1      84.408  52.078  43.348  1.00  0.00     0.057 A 
ATOM     19  C   UNL     1      82.229  50.340  43.008  1.00  0.00     0.050 A 
ATOM     20  C   UNL     1      83.304  52.452  42.588  1.00  0.00     0.157 A 
ATOM     21  C   UNL     1      82.222  51.595  42.420  1.00  0.00     0.157 A 
BRANCH  20  22
ATOM     22  O   UNL     1      83.293  53.684  41.998  1.00  0.00    -0.504 OA
ATOM     23  H   UNL     1      84.167  54.068  42.215  1.00  0.00     0.293 HD
ENDBRANCH  20  22
BRANCH  21  24
ATOM     24  O   UNL     1      81.173  52.034  41.660  1.00  0.00    -0.504 OA
ATOM     25  H   UNL     1      80.410  51.457  41.837  1.00  0.00     0.293 HD
ENDBRANCH  21  24
ENDBRANCH   5  16
TORSDOF 5
ENDMDL
