MODEL 1
REMARK VINA RESULT:    -8.069      0.000      0.000
REMARK INTER + INTRA:         -10.374
REMARK INTER:                  -9.992
REMARK INTRA:                  -0.382
REMARK UNBOUND:                 0.290
REMARK SMILES COc1cc(-c2cc(=O)c3c(O)cc(O)cc3o2)c(OC)c(OC)c1O
REMARK SMILES IDX 6 1 7 2 8 3 9 4 10 5 17 6 18 7 16 8 14 9 13 10 11 11 5 12
REMARK SMILES IDX 3 13 4 14 25 15 22 16 19 17 2 18 1 19 26 20 23 22 24 23
REMARK SMILES IDX 20 24 21 25 12 26 15 28
REMARK H PARENT 26 21 12 27 15 29
ROOT
ATOM      1  C   UNL     1      84.326  51.431  43.466  1.00  0.00     0.142 C 
ATOM      2  C   UNL     1      85.338  50.550  43.461  1.00  0.00     0.100 C 
ATOM      3  C   UNL     1      85.030  49.115  43.493  1.00  0.00     0.197 C 
ATOM      4  O   UNL     1      85.911  48.262  43.483  1.00  0.00    -0.289 OA
ATOM      5  C   UNL     1      83.613  48.737  43.534  1.00  0.00     0.107 A 
ATOM      6  C   UNL     1      82.657  49.750  43.524  1.00  0.00     0.146 A 
ATOM      7  O   UNL     1      82.984  51.083  43.478  1.00  0.00    -0.455 OA
ATOM      8  C   UNL     1      81.300  49.430  43.559  1.00  0.00     0.094 A 
ATOM      9  C   UNL     1      80.912  48.095  43.603  1.00  0.00     0.123 A 
ATOM     10  C   UNL     1      81.856  47.071  43.613  1.00  0.00     0.093 A 
ATOM     11  C   UNL     1      83.210  47.397  43.577  1.00  0.00     0.134 A 
ENDROOT
BRANCH   1  12
ATOM     12  C   UNL     1      84.567  52.887  43.420  1.00  0.00     0.067 A 
ATOM     13  C   UNL     1      84.807  54.895  42.071  1.00  0.00     0.165 A 
ATOM     14  C   UNL     1      84.583  53.522  42.167  1.00  0.00     0.066 A 
ATOM     15  C   UNL     1      85.033  55.645  43.238  1.00  0.00     0.204 A 
ATOM     16  C   UNL     1      85.037  55.042  44.500  1.00  0.00     0.207 A 
ATOM     17  C   UNL     1      84.759  53.664  44.580  1.00  0.00     0.175 A 
BRANCH  13  18
ATOM     18  O   UNL     1      84.831  55.625  40.907  1.00  0.00    -0.493 OA
ATOM     19  C   UNL     1      84.075  55.116  39.813  1.00  0.00     0.278 C 
ENDBRANCH  13  18
BRANCH  15  20
ATOM     20  O   UNL     1      85.222  56.998  43.095  1.00  0.00    -0.502 OA
ATOM     21  H   UNL     1      84.447  57.317  42.594  1.00  0.00     0.293 HD
ENDBRANCH  15  20
BRANCH  16  22
ATOM     22  O   UNL     1      85.246  55.685  45.693  1.00  0.00    -0.490 OA
ATOM     23  C   UNL     1      84.121  56.351  46.254  1.00  0.00     0.278 C 
ENDBRANCH  16  22
BRANCH  17  24
ATOM     24  O   UNL     1      84.738  53.038  45.809  1.00  0.00    -0.492 OA
ATOM     25  C   UNL     1      86.071  52.780  46.255  1.00  0.00     0.278 C 
ENDBRANCH  17  24
ENDBRANCH   1  12
BRANCH  11  26
ATOM     26  O   UNL     1      84.096  46.353  43.587  1.00  0.00    -0.507 OA
ATOM     27  H   UNL     1      84.925  46.658  44.021  1.00  0.00     0.293 HD
ENDBRANCH  11  26
BRANCH   9  28
ATOM     28  O   UNL     1      79.576  47.825  43.636  1.00  0.00    -0.508 OA
ATOM     29  H   UNL     1      79.284  47.793  44.564  1.00  0.00     0.293 HD
ENDBRANCH   9  28
TORSDOF 7
ENDMDL
MODEL 2
REMARK VINA RESULT:    -8.035      1.272      2.541
REMARK INTER + INTRA:         -10.329
REMARK INTER:                  -9.931
REMARK INTRA:                  -0.398
REMARK UNBOUND:                 0.290
REMARK SMILES COc1cc(-c2cc(=O)c3c(O)cc(O)cc3o2)c(OC)c(OC)c1O
REMARK SMILES IDX 6 1 7 2 8 3 9 4 10 5 17 6 18 7 16 8 14 9 13 10 11 11 5 12
REMARK SMILES IDX 3 13 4 14 25 15 22 16 19 17 2 18 1 19 26 20 23 22 24 23
REMARK SMILES IDX 20 24 21 25 12 26 15 28
REMARK H PARENT 26 21 12 27 15 29
ROOT
ATOM      1  C   UNL     1      83.784  50.751  43.273  1.00  0.00     0.142 C 
ATOM      2  C   UNL     1      82.470  50.495  43.179  1.00  0.00     0.100 C 
ATOM      3  C   UNL     1      82.008  49.106  43.298  1.00  0.00     0.197 C 
ATOM      4  O   UNL     1      80.820  48.810  43.227  1.00  0.00    -0.289 OA
ATOM      5  C   UNL     1      83.032  48.077  43.511  1.00  0.00     0.107 A 
ATOM      6  C   UNL     1      84.364  48.478  43.601  1.00  0.00     0.146 A 
ATOM      7  O   UNL     1      84.756  49.790  43.500  1.00  0.00    -0.455 OA
ATOM      8  C   UNL     1      85.366  47.529  43.806  1.00  0.00     0.094 A 
ATOM      9  C   UNL     1      85.023  46.185  43.919  1.00  0.00     0.123 A 
ATOM     10  C   UNL     1      83.696  45.770  43.832  1.00  0.00     0.093 A 
ATOM     11  C   UNL     1      82.700  46.723  43.627  1.00  0.00     0.134 A 
ENDROOT
BRANCH   1  12
ATOM     12  C   UNL     1      84.313  52.126  43.176  1.00  0.00     0.067 A 
ATOM     13  C   UNL     1      85.016  53.969  41.755  1.00  0.00     0.165 A 
ATOM     14  C   UNL     1      84.518  52.675  41.900  1.00  0.00     0.066 A 
ATOM     15  C   UNL     1      85.329  54.724  42.898  1.00  0.00     0.204 A 
ATOM     16  C   UNL     1      85.149  54.204  44.184  1.00  0.00     0.207 A 
ATOM     17  C   UNL     1      84.598  52.915  44.310  1.00  0.00     0.175 A 
BRANCH  13  18
ATOM     18  O   UNL     1      85.244  54.614  40.563  1.00  0.00    -0.493 OA
ATOM     19  C   UNL     1      84.113  54.837  39.726  1.00  0.00     0.278 C 
ENDBRANCH  13  18
BRANCH  15  20
ATOM     20  O   UNL     1      85.792  56.003  42.706  1.00  0.00    -0.502 OA
ATOM     21  H   UNL     1      86.053  56.046  41.766  1.00  0.00     0.293 HD
ENDBRANCH  15  20
BRANCH  16  22
ATOM     22  O   UNL     1      85.422  54.859  45.357  1.00  0.00    -0.490 OA
ATOM     23  C   UNL     1      84.444  55.792  45.800  1.00  0.00     0.278 C 
ENDBRANCH  16  22
BRANCH  17  24
ATOM     24  O   UNL     1      84.391  52.375  45.562  1.00  0.00    -0.492 OA
ATOM     25  C   UNL     1      85.620  51.879  46.096  1.00  0.00     0.278 C 
ENDBRANCH  17  24
ENDBRANCH   1  12
BRANCH  11  26
ATOM     26  O   UNL     1      81.414  46.261  43.550  1.00  0.00    -0.507 OA
ATOM     27  H   UNL     1      81.051  46.209  44.464  1.00  0.00     0.293 HD
ENDBRANCH  11  26
BRANCH   9  28
ATOM     28  O   UNL     1      86.032  45.290  44.119  1.00  0.00    -0.508 OA
ATOM     29  H   UNL     1      86.260  45.279  45.065  1.00  0.00     0.293 HD
ENDBRANCH   9  28
TORSDOF 7
ENDMDL
MODEL 3
REMARK VINA RESULT:    -7.989      2.644      7.311
REMARK INTER + INTRA:         -10.268
REMARK INTER:                  -9.874
REMARK INTRA:                  -0.395
REMARK UNBOUND:                 0.290
REMARK SMILES COc1cc(-c2cc(=O)c3c(O)cc(O)cc3o2)c(OC)c(OC)c1O
REMARK SMILES IDX 6 1 7 2 8 3 9 4 10 5 17 6 18 7 16 8 14 9 13 10 11 11 5 12
REMARK SMILES IDX 3 13 4 14 25 15 22 16 19 17 2 18 1 19 26 20 23 22 24 23
REMARK SMILES IDX 20 24 21 25 12 26 15 28
REMARK H PARENT 26 21 12 27 15 29
ROOT
ATOM      1  C   UNL     1      86.636  50.815  45.221  1.00  0.00     0.142 C 
ATOM      2  C   UNL     1      86.764  50.584  46.536  1.00  0.00     0.100 C 
ATOM      3  C   UNL     1      86.367  51.633  47.483  1.00  0.00     0.197 C 
ATOM      4  O   UNL     1      86.455  51.478  48.697  1.00  0.00    -0.289 OA
ATOM      5  C   UNL     1      85.853  52.885  46.916  1.00  0.00     0.107 A 
ATOM      6  C   UNL     1      85.760  52.995  45.531  1.00  0.00     0.146 A 
ATOM      7  O   UNL     1      86.127  51.984  44.677  1.00  0.00    -0.455 OA
ATOM      8  C   UNL     1      85.274  54.168  44.954  1.00  0.00     0.094 A 
ATOM      9  C   UNL     1      84.884  55.223  45.774  1.00  0.00     0.123 A 
ATOM     10  C   UNL     1      84.971  55.127  47.161  1.00  0.00     0.093 A 
ATOM     11  C   UNL     1      85.457  53.952  47.730  1.00  0.00     0.134 A 
ENDROOT
BRANCH   1  12
ATOM     12  C   UNL     1      87.004  49.797  44.217  1.00  0.00     0.067 A 
ATOM     13  C   UNL     1      88.625  48.995  42.592  1.00  0.00     0.165 A 
ATOM     14  C   UNL     1      88.232  49.930  43.549  1.00  0.00     0.066 A 
ATOM     15  C   UNL     1      87.775  47.919  42.283  1.00  0.00     0.204 A 
ATOM     16  C   UNL     1      86.539  47.765  42.919  1.00  0.00     0.207 A 
ATOM     17  C   UNL     1      86.183  48.690  43.918  1.00  0.00     0.175 A 
BRANCH  13  18
ATOM     18  O   UNL     1      89.805  49.014  41.888  1.00  0.00    -0.493 OA
ATOM     19  C   UNL     1      91.000  48.789  42.629  1.00  0.00     0.278 C 
ENDBRANCH  13  18
BRANCH  15  20
ATOM     20  O   UNL     1      88.216  47.010  41.353  1.00  0.00    -0.502 OA
ATOM     21  H   UNL     1      87.821  46.156  41.617  1.00  0.00     0.293 HD
ENDBRANCH  15  20
BRANCH  16  22
ATOM     22  O   UNL     1      85.643  46.752  42.689  1.00  0.00    -0.490 OA
ATOM     23  C   UNL     1      85.879  45.533  43.383  1.00  0.00     0.278 C 
ENDBRANCH  16  22
BRANCH  17  24
ATOM     24  O   UNL     1      84.980  48.560  44.578  1.00  0.00    -0.492 OA
ATOM     25  C   UNL     1      83.946  49.237  43.861  1.00  0.00     0.278 C 
ENDBRANCH  17  24
ENDBRANCH   1  12
BRANCH  11  26
ATOM     26  O   UNL     1      85.521  53.911  49.097  1.00  0.00    -0.507 OA
ATOM     27  H   UNL     1      85.449  52.970  49.379  1.00  0.00     0.293 HD
ENDBRANCH  11  26
BRANCH   9  28
ATOM     28  O   UNL     1      84.414  56.352  45.170  1.00  0.00    -0.508 OA
ATOM     29  H   UNL     1      85.077  56.667  44.532  1.00  0.00     0.293 HD
ENDBRANCH   9  28
TORSDOF 7
ENDMDL
MODEL 4
REMARK VINA RESULT:    -7.983      1.278      2.945
REMARK INTER + INTRA:         -10.260
REMARK INTER:                  -9.906
REMARK INTRA:                  -0.354
REMARK UNBOUND:                 0.290
REMARK SMILES COc1cc(-c2cc(=O)c3c(O)cc(O)cc3o2)c(OC)c(OC)c1O
REMARK SMILES IDX 6 1 7 2 8 3 9 4 10 5 17 6 18 7 16 8 14 9 13 10 11 11 5 12
REMARK SMILES IDX 3 13 4 14 25 15 22 16 19 17 2 18 1 19 26 20 23 22 24 23
REMARK SMILES IDX 20 24 21 25 12 26 15 28
REMARK H PARENT 26 21 12 27 15 29
ROOT
ATOM      1  C   UNL     1      84.236  50.528  43.987  1.00  0.00     0.142 C 
ATOM      2  C   UNL     1      85.180  49.593  43.808  1.00  0.00     0.100 C 
ATOM      3  C   UNL     1      84.771  48.194  43.630  1.00  0.00     0.197 C 
ATOM      4  O   UNL     1      85.588  47.296  43.456  1.00  0.00    -0.289 OA
ATOM      5  C   UNL     1      83.332  47.911  43.665  1.00  0.00     0.107 A 
ATOM      6  C   UNL     1      82.452  48.975  43.848  1.00  0.00     0.146 A 
ATOM      7  O   UNL     1      82.873  50.274  43.995  1.00  0.00    -0.455 OA
ATOM      8  C   UNL     1      81.076  48.746  43.885  1.00  0.00     0.094 A 
ATOM      9  C   UNL     1      80.595  47.448  43.736  1.00  0.00     0.123 A 
ATOM     10  C   UNL     1      81.462  46.374  43.552  1.00  0.00     0.093 A 
ATOM     11  C   UNL     1      82.835  46.611  43.517  1.00  0.00     0.134 A 
ENDROOT
BRANCH   1  12
ATOM     12  C   UNL     1      84.580  51.954  44.157  1.00  0.00     0.067 A 
ATOM     13  C   UNL     1      84.878  53.836  45.667  1.00  0.00     0.165 A 
ATOM     14  C   UNL     1      84.562  52.495  45.453  1.00  0.00     0.066 A 
ATOM     15  C   UNL     1      85.203  54.655  44.572  1.00  0.00     0.204 A 
ATOM     16  C   UNL     1      85.218  54.152  43.267  1.00  0.00     0.207 A 
ATOM     17  C   UNL     1      84.945  52.784  43.078  1.00  0.00     0.175 A 
BRANCH  13  18
ATOM     18  O   UNL     1      84.908  54.470  46.886  1.00  0.00    -0.493 OA
ATOM     19  C   UNL     1      83.675  54.567  47.590  1.00  0.00     0.278 C 
ENDBRANCH  13  18
BRANCH  15  20
ATOM     20  O   UNL     1      85.534  55.963  44.834  1.00  0.00    -0.502 OA
ATOM     21  H   UNL     1      84.719  56.370  45.188  1.00  0.00     0.293 HD
ENDBRANCH  15  20
BRANCH  16  22
ATOM     22  O   UNL     1      85.522  54.867  42.138  1.00  0.00    -0.490 OA
ATOM     23  C   UNL     1      84.448  55.581  41.537  1.00  0.00     0.278 C 
ENDBRANCH  16  22
BRANCH  17  24
ATOM     24  O   UNL     1      84.965  52.249  41.807  1.00  0.00    -0.492 OA
ATOM     25  C   UNL     1      86.310  51.985  41.402  1.00  0.00     0.278 C 
ENDBRANCH  17  24
ENDBRANCH   1  12
BRANCH  11  26
ATOM     26  O   UNL     1      83.643  45.521  43.333  1.00  0.00    -0.507 OA
ATOM     27  H   UNL     1      83.089  44.711  43.419  1.00  0.00     0.293 HD
ENDBRANCH  11  26
BRANCH   9  28
ATOM     28  O   UNL     1      79.244  47.267  43.778  1.00  0.00    -0.508 OA
ATOM     29  H   UNL     1      79.050  46.319  43.675  1.00  0.00     0.293 HD
ENDBRANCH   9  28
TORSDOF 7
ENDMDL
MODEL 5
REMARK VINA RESULT:    -7.955      1.458      7.217
REMARK INTER + INTRA:         -10.223
REMARK INTER:                  -9.819
REMARK INTRA:                  -0.404
REMARK UNBOUND:                 0.290
REMARK SMILES COc1cc(-c2cc(=O)c3c(O)cc(O)cc3o2)c(OC)c(OC)c1O
REMARK SMILES IDX 6 1 7 2 8 3 9 4 10 5 17 6 18 7 16 8 14 9 13 10 11 11 5 12
REMARK SMILES IDX 3 13 4 14 25 15 22 16 19 17 2 18 1 19 26 20 23 22 24 23
REMARK SMILES IDX 20 24 21 25 12 26 15 28
REMARK H PARENT 26 21 12 27 15 29
ROOT
ATOM      1  C   UNL     1      84.212  51.472  43.543  1.00  0.00     0.142 C 
ATOM      2  C   UNL     1      84.766  52.027  42.454  1.00  0.00     0.100 C 
ATOM      3  C   UNL     1      85.443  53.323  42.584  1.00  0.00     0.197 C 
ATOM      4  O   UNL     1      85.973  53.876  41.626  1.00  0.00    -0.289 OA
ATOM      5  C   UNL     1      85.465  53.934  43.917  1.00  0.00     0.107 A 
ATOM      6  C   UNL     1      84.861  53.249  44.969  1.00  0.00     0.146 A 
ATOM      7  O   UNL     1      84.250  52.029  44.811  1.00  0.00    -0.455 OA
ATOM      8  C   UNL     1      84.864  53.796  46.252  1.00  0.00     0.094 A 
ATOM      9  C   UNL     1      85.473  55.029  46.469  1.00  0.00     0.123 A 
ATOM     10  C   UNL     1      86.081  55.725  45.427  1.00  0.00     0.093 A 
ATOM     11  C   UNL     1      86.075  55.172  44.148  1.00  0.00     0.134 A 
ENDROOT
BRANCH   1  12
ATOM     12  C   UNL     1      83.529  50.164  43.483  1.00  0.00     0.067 A 
ATOM     13  C   UNL     1      81.436  48.938  43.322  1.00  0.00     0.165 A 
ATOM     14  C   UNL     1      82.128  50.147  43.381  1.00  0.00     0.066 A 
ATOM     15  C   UNL     1      82.147  47.727  43.381  1.00  0.00     0.204 A 
ATOM     16  C   UNL     1      83.541  47.709  43.496  1.00  0.00     0.207 A 
ATOM     17  C   UNL     1      84.226  48.939  43.503  1.00  0.00     0.175 A 
BRANCH  13  18
ATOM     18  O   UNL     1      80.074  48.797  43.208  1.00  0.00    -0.493 OA
ATOM     19  C   UNL     1      79.278  49.384  44.232  1.00  0.00     0.278 C 
ENDBRANCH  13  18
BRANCH  15  20
ATOM     20  O   UNL     1      81.425  46.562  43.293  1.00  0.00    -0.502 OA
ATOM     21  H   UNL     1      81.277  46.421  42.337  1.00  0.00     0.293 HD
ENDBRANCH  15  20
BRANCH  16  22
ATOM     22  O   UNL     1      84.323  46.584  43.559  1.00  0.00    -0.490 OA
ATOM     23  C   UNL     1      84.523  45.886  42.335  1.00  0.00     0.278 C 
ENDBRANCH  16  22
BRANCH  17  24
ATOM     24  O   UNL     1      85.601  48.960  43.599  1.00  0.00    -0.492 OA
ATOM     25  C   UNL     1      86.002  48.917  44.970  1.00  0.00     0.278 C 
ENDBRANCH  17  24
ENDBRANCH   1  12
BRANCH  11  26
ATOM     26  O   UNL     1      86.686  55.898  43.161  1.00  0.00    -0.507 OA
ATOM     27  H   UNL     1      87.429  55.360  42.801  1.00  0.00     0.293 HD
ENDBRANCH  11  26
BRANCH   9  28
ATOM     28  O   UNL     1      85.454  55.529  47.738  1.00  0.00    -0.508 OA
ATOM     29  H   UNL     1      85.155  56.454  47.707  1.00  0.00     0.293 HD
ENDBRANCH   9  28
TORSDOF 7
ENDMDL
MODEL 6
REMARK VINA RESULT:    -7.913      2.239      7.501
REMARK INTER + INTRA:         -10.167
REMARK INTER:                  -9.906
REMARK INTRA:                  -0.261
REMARK UNBOUND:                 0.290
REMARK SMILES COc1cc(-c2cc(=O)c3c(O)cc(O)cc3o2)c(OC)c(OC)c1O
REMARK SMILES IDX 6 1 7 2 8 3 9 4 10 5 17 6 18 7 16 8 14 9 13 10 11 11 5 12
REMARK SMILES IDX 3 13 4 14 25 15 22 16 19 17 2 18 1 19 26 20 23 22 24 23
REMARK SMILES IDX 20 24 21 25 12 26 15 28
REMARK H PARENT 26 21 12 27 15 29
ROOT
ATOM      1  C   UNL     1      86.237  51.139  43.036  1.00  0.00     0.142 C 
ATOM      2  C   UNL     1      85.958  51.857  41.937  1.00  0.00     0.100 C 
ATOM      3  C   UNL     1      85.798  53.311  42.061  1.00  0.00     0.197 C 
ATOM      4  O   UNL     1      85.549  54.021  41.092  1.00  0.00    -0.289 OA
ATOM      5  C   UNL     1      85.953  53.888  43.401  1.00  0.00     0.107 A 
ATOM      6  C   UNL     1      86.254  53.033  44.459  1.00  0.00     0.146 A 
ATOM      7  O   UNL     1      86.411  51.679  44.301  1.00  0.00    -0.455 OA
ATOM      8  C   UNL     1      86.411  53.545  45.747  1.00  0.00     0.094 A 
ATOM      9  C   UNL     1      86.267  54.912  45.963  1.00  0.00     0.123 A 
ATOM     10  C   UNL     1      85.967  55.779  44.915  1.00  0.00     0.093 A 
ATOM     11  C   UNL     1      85.811  55.261  43.630  1.00  0.00     0.134 A 
ENDROOT
BRANCH   1  12
ATOM     12  C   UNL     1      86.424  49.676  42.978  1.00  0.00     0.067 A 
ATOM     13  C   UNL     1      87.625  47.787  42.028  1.00  0.00     0.165 A 
ATOM     14  C   UNL     1      87.410  49.162  42.119  1.00  0.00     0.066 A 
ATOM     15  C   UNL     1      86.837  46.909  42.792  1.00  0.00     0.204 A 
ATOM     16  C   UNL     1      85.839  47.387  43.646  1.00  0.00     0.207 A 
ATOM     17  C   UNL     1      85.671  48.779  43.763  1.00  0.00     0.175 A 
BRANCH  13  18
ATOM     18  O   UNL     1      88.566  47.172  41.237  1.00  0.00    -0.493 OA
ATOM     19  C   UNL     1      89.932  47.437  41.539  1.00  0.00     0.278 C 
ENDBRANCH  13  18
BRANCH  15  20
ATOM     20  O   UNL     1      87.104  45.565  42.689  1.00  0.00    -0.502 OA
ATOM     21  H   UNL     1      86.983  45.349  41.744  1.00  0.00     0.293 HD
ENDBRANCH  15  20
BRANCH  16  22
ATOM     22  O   UNL     1      85.021  46.614  44.431  1.00  0.00    -0.490 OA
ATOM     23  C   UNL     1      83.979  45.916  43.759  1.00  0.00     0.278 C 
ENDBRANCH  16  22
BRANCH  17  24
ATOM     24  O   UNL     1      84.707  49.287  44.608  1.00  0.00    -0.492 OA
ATOM     25  C   UNL     1      83.488  49.506  43.894  1.00  0.00     0.278 C 
ENDBRANCH  17  24
ENDBRANCH   1  12
BRANCH  11  26
ATOM     26  O   UNL     1      85.518  56.157  42.637  1.00  0.00    -0.507 OA
ATOM     27  H   UNL     1      85.719  57.061  42.971  1.00  0.00     0.293 HD
ENDBRANCH  11  26
BRANCH   9  28
ATOM     28  O   UNL     1      86.429  55.372  47.236  1.00  0.00    -0.508 OA
ATOM     29  H   UNL     1      87.194  54.925  47.637  1.00  0.00     0.293 HD
ENDBRANCH   9  28
TORSDOF 7
ENDMDL
MODEL 7
REMARK VINA RESULT:    -7.797      1.516      7.236
REMARK INTER + INTRA:         -10.015
REMARK INTER:                  -9.578
REMARK INTRA:                  -0.437
REMARK UNBOUND:                 0.290
REMARK SMILES COc1cc(-c2cc(=O)c3c(O)cc(O)cc3o2)c(OC)c(OC)c1O
REMARK SMILES IDX 6 1 7 2 8 3 9 4 10 5 17 6 18 7 16 8 14 9 13 10 11 11 5 12
REMARK SMILES IDX 3 13 4 14 25 15 22 16 19 17 2 18 1 19 26 20 23 22 24 23
REMARK SMILES IDX 20 24 21 25 12 26 15 28
REMARK H PARENT 26 21 12 27 15 29
ROOT
ATOM      1  C   UNL     1      84.628  51.549  43.934  1.00  0.00     0.142 C 
ATOM      2  C   UNL     1      85.220  52.269  42.970  1.00  0.00     0.100 C 
ATOM      3  C   UNL     1      85.539  53.678  43.230  1.00  0.00     0.197 C 
ATOM      4  O   UNL     1      86.086  54.385  42.390  1.00  0.00    -0.289 OA
ATOM      5  C   UNL     1      85.177  54.212  44.548  1.00  0.00     0.107 A 
ATOM      6  C   UNL     1      84.575  53.356  45.467  1.00  0.00     0.146 A 
ATOM      7  O   UNL     1      84.307  52.037  45.191  1.00  0.00    -0.455 OA
ATOM      8  C   UNL     1      84.219  53.826  46.731  1.00  0.00     0.094 A 
ATOM      9  C   UNL     1      84.472  55.153  47.063  1.00  0.00     0.123 A 
ATOM     10  C   UNL     1      85.074  56.021  46.156  1.00  0.00     0.093 A 
ATOM     11  C   UNL     1      85.427  55.545  44.895  1.00  0.00     0.134 A 
ENDROOT
BRANCH   1  12
ATOM     12  C   UNL     1      84.294  50.124  43.742  1.00  0.00     0.067 A 
ATOM     13  C   UNL     1      85.077  47.828  43.571  1.00  0.00     0.165 A 
ATOM     14  C   UNL     1      85.340  49.186  43.748  1.00  0.00     0.066 A 
ATOM     15  C   UNL     1      83.754  47.398  43.369  1.00  0.00     0.204 A 
ATOM     16  C   UNL     1      82.691  48.307  43.344  1.00  0.00     0.207 A 
ATOM     17  C   UNL     1      82.971  49.667  43.576  1.00  0.00     0.175 A 
BRANCH  13  18
ATOM     18  O   UNL     1      86.013  46.821  43.572  1.00  0.00    -0.493 OA
ATOM     19  C   UNL     1      87.023  46.882  42.571  1.00  0.00     0.278 C 
ENDBRANCH  13  18
BRANCH  15  20
ATOM     20  O   UNL     1      83.541  46.049  43.225  1.00  0.00    -0.502 OA
ATOM     21  H   UNL     1      83.572  45.883  42.263  1.00  0.00     0.293 HD
ENDBRANCH  15  20
BRANCH  16  22
ATOM     22  O   UNL     1      81.371  47.987  43.156  1.00  0.00    -0.490 OA
ATOM     23  C   UNL     1      80.658  47.552  44.308  1.00  0.00     0.278 C 
ENDBRANCH  16  22
BRANCH  17  24
ATOM     24  O   UNL     1      81.946  50.589  43.575  1.00  0.00    -0.492 OA
ATOM     25  C   UNL     1      81.689  51.042  42.244  1.00  0.00     0.278 C 
ENDBRANCH  17  24
ENDBRANCH   1  12
BRANCH  11  26
ATOM     26  O   UNL     1      86.017  56.439  44.042  1.00  0.00    -0.507 OA
ATOM     27  H   UNL     1      85.354  57.132  43.819  1.00  0.00     0.293 HD
ENDBRANCH  11  26
BRANCH   9  28
ATOM     28  O   UNL     1      84.110  55.573  48.309  1.00  0.00    -0.508 OA
ATOM     29  H   UNL     1      84.280  54.856  48.945  1.00  0.00     0.293 HD
ENDBRANCH   9  28
TORSDOF 7
ENDMDL
MODEL 8
REMARK VINA RESULT:    -7.758      3.597      6.972
REMARK INTER + INTRA:          -9.963
REMARK INTER:                 -10.252
REMARK INTRA:                   0.290
REMARK UNBOUND:                 0.290
REMARK SMILES COc1cc(-c2cc(=O)c3c(O)cc(O)cc3o2)c(OC)c(OC)c1O
REMARK SMILES IDX 6 1 7 2 8 3 9 4 10 5 17 6 18 7 16 8 14 9 13 10 11 11 5 12
REMARK SMILES IDX 3 13 4 14 25 15 22 16 19 17 2 18 1 19 26 20 23 22 24 23
REMARK SMILES IDX 20 24 21 25 12 26 15 28
REMARK H PARENT 26 21 12 27 15 29
ROOT
ATOM      1  C   UNL     1      84.592  46.614  43.364  1.00  0.00     0.142 C 
ATOM      2  C   UNL     1      84.661  45.360  43.837  1.00  0.00     0.100 C 
ATOM      3  C   UNL     1      85.927  44.626  43.721  1.00  0.00     0.197 C 
ATOM      4  O   UNL     1      86.054  43.480  44.140  1.00  0.00    -0.289 OA
ATOM      5  C   UNL     1      87.048  45.325  43.082  1.00  0.00     0.107 A 
ATOM      6  C   UNL     1      86.849  46.632  42.643  1.00  0.00     0.146 A 
ATOM      7  O   UNL     1      85.653  47.291  42.783  1.00  0.00    -0.455 OA
ATOM      8  C   UNL     1      87.891  47.330  42.033  1.00  0.00     0.094 A 
ATOM      9  C   UNL     1      89.127  46.710  41.870  1.00  0.00     0.123 A 
ATOM     10  C   UNL     1      89.341  45.405  42.305  1.00  0.00     0.093 A 
ATOM     11  C   UNL     1      88.295  44.713  42.913  1.00  0.00     0.134 A 
ENDROOT
BRANCH   1  12
ATOM     12  C   UNL     1      83.353  47.411  43.462  1.00  0.00     0.067 A 
ATOM     13  C   UNL     1      80.938  47.441  43.734  1.00  0.00     0.165 A 
ATOM     14  C   UNL     1      82.135  46.734  43.636  1.00  0.00     0.066 A 
ATOM     15  C   UNL     1      80.950  48.843  43.641  1.00  0.00     0.204 A 
ATOM     16  C   UNL     1      82.144  49.548  43.453  1.00  0.00     0.207 A 
ATOM     17  C   UNL     1      83.347  48.820  43.409  1.00  0.00     0.175 A 
BRANCH  13  18
ATOM     18  O   UNL     1      79.692  46.890  43.919  1.00  0.00    -0.493 OA
ATOM     19  C   UNL     1      79.583  45.860  44.895  1.00  0.00     0.278 C 
ENDBRANCH  13  18
BRANCH  15  20
ATOM     20  O   UNL     1      79.749  49.498  43.768  1.00  0.00    -0.502 OA
ATOM     21  H   UNL     1      79.966  50.360  44.175  1.00  0.00     0.293 HD
ENDBRANCH  15  20
BRANCH  16  22
ATOM     22  O   UNL     1      82.260  50.911  43.352  1.00  0.00    -0.490 OA
ATOM     23  C   UNL     1      81.975  51.474  42.078  1.00  0.00     0.278 C 
ENDBRANCH  16  22
BRANCH  17  24
ATOM     24  O   UNL     1      84.545  49.481  43.241  1.00  0.00    -0.492 OA
ATOM     25  C   UNL     1      85.005  49.998  44.492  1.00  0.00     0.278 C 
ENDBRANCH  17  24
ENDBRANCH   1  12
BRANCH  11  26
ATOM     26  O   UNL     1      88.559  43.434  43.322  1.00  0.00    -0.507 OA
ATOM     27  H   UNL     1      89.407  43.441  43.824  1.00  0.00     0.293 HD
ENDBRANCH  11  26
BRANCH   9  28
ATOM     28  O   UNL     1      90.119  47.428  41.269  1.00  0.00    -0.508 OA
ATOM     29  H   UNL     1      90.965  47.215  41.699  1.00  0.00     0.293 HD
ENDBRANCH   9  28
TORSDOF 7
ENDMDL
MODEL 9
REMARK VINA RESULT:    -7.711      2.835      4.603
REMARK INTER + INTRA:          -9.901
REMARK INTER:                  -9.580
REMARK INTRA:                  -0.321
REMARK UNBOUND:                 0.290
REMARK SMILES COc1cc(-c2cc(=O)c3c(O)cc(O)cc3o2)c(OC)c(OC)c1O
REMARK SMILES IDX 6 1 7 2 8 3 9 4 10 5 17 6 18 7 16 8 14 9 13 10 11 11 5 12
REMARK SMILES IDX 3 13 4 14 25 15 22 16 19 17 2 18 1 19 26 20 23 22 24 23
REMARK SMILES IDX 20 24 21 25 12 26 15 28
REMARK H PARENT 26 21 12 27 15 29
ROOT
ATOM      1  C   UNL     1      87.427  51.176  43.518  1.00  0.00     0.142 C 
ATOM      2  C   UNL     1      88.677  51.044  43.048  1.00  0.00     0.100 C 
ATOM      3  C   UNL     1      89.118  49.731  42.561  1.00  0.00     0.197 C 
ATOM      4  O   UNL     1      90.246  49.550  42.114  1.00  0.00    -0.289 OA
ATOM      5  C   UNL     1      88.146  48.634  42.627  1.00  0.00     0.107 A 
ATOM      6  C   UNL     1      86.875  48.904  43.128  1.00  0.00     0.146 A 
ATOM      7  O   UNL     1      86.494  50.151  43.560  1.00  0.00    -0.455 OA
ATOM      8  C   UNL     1      85.923  47.888  43.204  1.00  0.00     0.094 A 
ATOM      9  C   UNL     1      86.255  46.606  42.776  1.00  0.00     0.123 A 
ATOM     10  C   UNL     1      87.522  46.320  42.273  1.00  0.00     0.093 A 
ATOM     11  C   UNL     1      88.468  47.341  42.199  1.00  0.00     0.134 A 
ENDROOT
BRANCH   1  12
ATOM     12  C   UNL     1      86.917  52.471  44.009  1.00  0.00     0.067 A 
ATOM     13  C   UNL     1      86.263  53.843  45.906  1.00  0.00     0.165 A 
ATOM     14  C   UNL     1      86.742  52.639  45.392  1.00  0.00     0.066 A 
ATOM     15  C   UNL     1      85.937  54.892  45.028  1.00  0.00     0.204 A 
ATOM     16  C   UNL     1      86.087  54.753  43.645  1.00  0.00     0.207 A 
ATOM     17  C   UNL     1      86.620  53.548  43.149  1.00  0.00     0.175 A 
BRANCH  13  18
ATOM     18  O   UNL     1      86.065  54.127  47.236  1.00  0.00    -0.493 OA
ATOM     19  C   UNL     1      85.151  53.295  47.943  1.00  0.00     0.278 C 
ENDBRANCH  13  18
BRANCH  15  20
ATOM     20  O   UNL     1      85.494  56.068  45.583  1.00  0.00    -0.502 OA
ATOM     21  H   UNL     1      84.741  55.818  46.152  1.00  0.00     0.293 HD
ENDBRANCH  15  20
BRANCH  16  22
ATOM     22  O   UNL     1      85.800  55.714  42.710  1.00  0.00    -0.490 OA
ATOM     23  C   UNL     1      84.421  55.937  42.438  1.00  0.00     0.278 C 
ENDBRANCH  16  22
BRANCH  17  24
ATOM     24  O   UNL     1      86.797  53.382  41.792  1.00  0.00    -0.492 OA
ATOM     25  C   UNL     1      85.655  52.741  41.219  1.00  0.00     0.278 C 
ENDBRANCH  17  24
ENDBRANCH   1  12
BRANCH  11  26
ATOM     26  O   UNL     1      89.696  47.006  41.696  1.00  0.00    -0.507 OA
ATOM     27  H   UNL     1      90.199  46.537  42.401  1.00  0.00     0.293 HD
ENDBRANCH  11  26
BRANCH   9  28
ATOM     28  O   UNL     1      85.296  45.641  42.867  1.00  0.00    -0.508 OA
ATOM     29  H   UNL     1      84.933  45.473  41.981  1.00  0.00     0.293 HD
ENDBRANCH   9  28
TORSDOF 7
ENDMDL
