MODEL 1
REMARK VINA RESULT:    -7.795      0.000      0.000
REMARK INTER + INTRA:          -9.270
REMARK INTER:                  -8.876
REMARK INTRA:                  -0.394
REMARK UNBOUND:                -0.336
REMARK SMILES COc1cc(O)c2c(c1)OC(c1ccccc1)CC2=O
REMARK SMILES IDX 3 1 9 2 8 3 10 4 11 5 18 6 19 7 20 8 7 9 5 10 4 11 2 12 1 13
REMARK SMILES IDX 6 14 12 16 13 17 17 18 14 19 16 20 15 21
REMARK H PARENT 6 15
ROOT
ATOM      1  C   UNL     1      81.060  50.468  42.746  1.00  0.00     0.126 A 
ATOM      2  C   UNL     1      82.224  49.706  42.591  1.00  0.00     0.093 A 
ATOM      3  C   UNL     1      82.314  48.427  43.138  1.00  0.00     0.138 A 
ATOM      4  O   UNL     1      83.492  47.755  42.942  1.00  0.00    -0.484 OA
ATOM      5  C   UNL     1      83.729  46.737  43.929  1.00  0.00     0.211 C 
ATOM      6  C   UNL     1      82.573  45.747  43.978  1.00  0.00     0.131 C 
ATOM      7  C   UNL     1      81.325  46.504  44.320  1.00  0.00     0.174 C 
ATOM      8  O   UNL     1      80.386  46.007  44.938  1.00  0.00    -0.294 OA
ATOM      9  C   UNL     1      81.224  47.887  43.819  1.00  0.00     0.102 A 
ATOM     10  C   UNL     1      80.061  48.645  43.979  1.00  0.00     0.133 A 
ATOM     11  C   UNL     1      79.978  49.932  43.450  1.00  0.00     0.093 A 
ENDROOT
BRANCH   1  12
ATOM     12  O   UNL     1      81.109  51.706  42.171  1.00  0.00    -0.496 OA
ATOM     13  C   UNL     1      82.347  52.098  41.589  1.00  0.00     0.278 C 
ENDBRANCH   1  12
BRANCH  10  14
ATOM     14  O   UNL     1      78.956  48.180  44.640  1.00  0.00    -0.507 OA
ATOM     15  H   UNL     1      78.914  47.204  44.521  1.00  0.00     0.293 HD
ENDBRANCH  10  14
BRANCH   5  16
ATOM     16  C   UNL     1      85.027  46.023  43.600  1.00  0.00    -0.007 A 
ATOM     17  C   UNL     1      85.276  44.744  44.123  1.00  0.00     0.007 A 
ATOM     18  C   UNL     1      85.981  46.598  42.745  1.00  0.00     0.007 A 
ATOM     19  C   UNL     1      86.454  44.064  43.807  1.00  0.00     0.000 A 
ATOM     20  C   UNL     1      87.157  45.915  42.431  1.00  0.00     0.000 A 
ATOM     21  C   UNL     1      87.394  44.650  42.962  1.00  0.00     0.000 A 
ENDBRANCH   5  16
TORSDOF 3
ENDMDL
MODEL 2
REMARK VINA RESULT:    -7.793      2.647      6.485
REMARK INTER + INTRA:          -9.268
REMARK INTER:                  -8.904
REMARK INTRA:                  -0.364
REMARK UNBOUND:                -0.336
REMARK SMILES COc1cc(O)c2c(c1)OC(c1ccccc1)CC2=O
REMARK SMILES IDX 3 1 9 2 8 3 10 4 11 5 18 6 19 7 20 8 7 9 5 10 4 11 2 12 1 13
REMARK SMILES IDX 6 14 12 16 13 17 17 18 14 19 16 20 15 21
REMARK H PARENT 6 15
ROOT
ATOM      1  C   UNL     1      88.425  47.535  41.812  1.00  0.00     0.126 A 
ATOM      2  C   UNL     1      87.137  47.921  42.201  1.00  0.00     0.093 A 
ATOM      3  C   UNL     1      86.264  47.000  42.778  1.00  0.00     0.138 A 
ATOM      4  O   UNL     1      85.021  47.462  43.123  1.00  0.00    -0.484 OA
ATOM      5  C   UNL     1      84.034  46.420  43.194  1.00  0.00     0.211 C 
ATOM      6  C   UNL     1      84.464  45.328  44.164  1.00  0.00     0.131 C 
ATOM      7  C   UNL     1      85.766  44.761  43.680  1.00  0.00     0.174 C 
ATOM      8  O   UNL     1      86.105  43.596  43.875  1.00  0.00    -0.294 OA
ATOM      9  C   UNL     1      86.687  45.691  43.000  1.00  0.00     0.102 A 
ATOM     10  C   UNL     1      87.971  45.300  42.611  1.00  0.00     0.133 A 
ATOM     11  C   UNL     1      88.837  46.216  42.014  1.00  0.00     0.093 A 
ENDROOT
BRANCH   1  12
ATOM     12  O   UNL     1      89.173  48.532  41.250  1.00  0.00    -0.496 OA
ATOM     13  C   UNL     1      90.512  48.669  41.709  1.00  0.00     0.278 C 
ENDBRANCH   1  12
BRANCH  10  14
ATOM     14  O   UNL     1      88.449  44.030  42.794  1.00  0.00    -0.507 OA
ATOM     15  H   UNL     1      87.735  43.488  43.200  1.00  0.00     0.293 HD
ENDBRANCH  10  14
BRANCH   5  16
ATOM     16  C   UNL     1      82.709  47.023  43.626  1.00  0.00    -0.007 A 
ATOM     17  C   UNL     1      81.743  46.220  44.251  1.00  0.00     0.007 A 
ATOM     18  C   UNL     1      82.437  48.389  43.450  1.00  0.00     0.007 A 
ATOM     19  C   UNL     1      80.531  46.766  44.679  1.00  0.00     0.000 A 
ATOM     20  C   UNL     1      81.224  48.933  43.878  1.00  0.00     0.000 A 
ATOM     21  C   UNL     1      80.273  48.122  44.491  1.00  0.00     0.000 A 
ENDBRANCH   5  16
TORSDOF 3
ENDMDL
MODEL 3
REMARK VINA RESULT:    -7.780      6.401      8.549
REMARK INTER + INTRA:          -9.253
REMARK INTER:                  -8.873
REMARK INTRA:                  -0.380
REMARK UNBOUND:                -0.336
REMARK SMILES COc1cc(O)c2c(c1)OC(c1ccccc1)CC2=O
REMARK SMILES IDX 3 1 9 2 8 3 10 4 11 5 18 6 19 7 20 8 7 9 5 10 4 11 2 12 1 13
REMARK SMILES IDX 6 14 12 16 13 17 17 18 14 19 16 20 15 21
REMARK H PARENT 6 15
ROOT
ATOM      1  C   UNL     1      89.601  50.151  41.462  1.00  0.00     0.126 A 
ATOM      2  C   UNL     1      89.077  50.222  42.758  1.00  0.00     0.093 A 
ATOM      3  C   UNL     1      88.164  51.218  43.101  1.00  0.00     0.138 A 
ATOM      4  O   UNL     1      87.708  51.217  44.393  1.00  0.00    -0.484 OA
ATOM      5  C   UNL     1      87.233  52.504  44.822  1.00  0.00     0.211 C 
ATOM      6  C   UNL     1      86.143  53.020  43.892  1.00  0.00     0.131 C 
ATOM      7  C   UNL     1      86.721  53.127  42.512  1.00  0.00     0.174 C 
ATOM      8  O   UNL     1      86.343  53.957  41.688  1.00  0.00    -0.294 OA
ATOM      9  C   UNL     1      87.744  52.133  42.137  1.00  0.00     0.102 A 
ATOM     10  C   UNL     1      88.266  52.068  40.843  1.00  0.00     0.133 A 
ATOM     11  C   UNL     1      89.195  51.084  40.505  1.00  0.00     0.093 A 
ENDROOT
BRANCH   1  12
ATOM     12  O   UNL     1      90.493  49.135  41.263  1.00  0.00    -0.496 OA
ATOM     13  C   UNL     1      90.126  47.850  41.753  1.00  0.00     0.278 C 
ENDBRANCH   1  12
BRANCH  10  14
ATOM     14  O   UNL     1      87.901  52.937  39.849  1.00  0.00    -0.507 OA
ATOM     15  H   UNL     1      87.231  52.491  39.282  1.00  0.00     0.293 HD
ENDBRANCH  10  14
BRANCH   5  16
ATOM     16  C   UNL     1      86.708  52.387  46.242  1.00  0.00    -0.007 A 
ATOM     17  C   UNL     1      86.959  51.226  46.989  1.00  0.00     0.007 A 
ATOM     18  C   UNL     1      86.004  53.439  46.849  1.00  0.00     0.007 A 
ATOM     19  C   UNL     1      86.506  51.116  48.306  1.00  0.00     0.000 A 
ATOM     20  C   UNL     1      85.552  53.326  48.165  1.00  0.00     0.000 A 
ATOM     21  C   UNL     1      85.803  52.165  48.892  1.00  0.00     0.000 A 
ENDBRANCH   5  16
TORSDOF 3
ENDMDL
MODEL 4
REMARK VINA RESULT:    -7.780      1.516      3.697
REMARK INTER + INTRA:          -9.253
REMARK INTER:                  -8.877
REMARK INTRA:                  -0.376
REMARK UNBOUND:                -0.336
REMARK SMILES COc1cc(O)c2c(c1)OC(c1ccccc1)CC2=O
REMARK SMILES IDX 3 1 9 2 8 3 10 4 11 5 18 6 19 7 20 8 7 9 5 10 4 11 2 12 1 13
REMARK SMILES IDX 6 14 12 16 13 17 17 18 14 19 16 20 15 21
REMARK H PARENT 6 15
ROOT
ATOM      1  C   UNL     1      80.968  47.450  43.765  1.00  0.00     0.126 A 
ATOM      2  C   UNL     1      82.054  46.566  43.761  1.00  0.00     0.093 A 
ATOM      3  C   UNL     1      83.358  47.045  43.640  1.00  0.00     0.138 A 
ATOM      4  O   UNL     1      84.359  46.110  43.640  1.00  0.00    -0.484 OA
ATOM      5  C   UNL     1      85.559  46.572  42.997  1.00  0.00     0.211 C 
ATOM      6  C   UNL     1      86.058  47.860  43.638  1.00  0.00     0.131 C 
ATOM      7  C   UNL     1      84.980  48.895  43.503  1.00  0.00     0.174 C 
ATOM      8  O   UNL     1      85.212  50.098  43.411  1.00  0.00    -0.294 OA
ATOM      9  C   UNL     1      83.586  48.417  43.554  1.00  0.00     0.102 A 
ATOM     10  C   UNL     1      82.505  49.303  43.555  1.00  0.00     0.133 A 
ATOM     11  C   UNL     1      81.199  48.823  43.654  1.00  0.00     0.093 A 
ENDROOT
BRANCH   1  12
ATOM     12  O   UNL     1      79.745  46.849  43.878  1.00  0.00    -0.496 OA
ATOM     13  C   UNL     1      79.607  45.856  44.887  1.00  0.00     0.278 C 
ENDBRANCH   1  12
BRANCH  10  14
ATOM     14  O   UNL     1      82.656  50.661  43.468  1.00  0.00    -0.507 OA
ATOM     15  H   UNL     1      82.294  51.064  44.290  1.00  0.00     0.293 HD
ENDBRANCH  10  14
BRANCH   5  16
ATOM     16  C   UNL     1      86.617  45.487  43.090  1.00  0.00    -0.007 A 
ATOM     17  C   UNL     1      87.850  45.653  42.440  1.00  0.00     0.007 A 
ATOM     18  C   UNL     1      86.408  44.326  43.851  1.00  0.00     0.007 A 
ATOM     19  C   UNL     1      88.843  44.676  42.539  1.00  0.00     0.000 A 
ATOM     20  C   UNL     1      87.403  43.351  43.948  1.00  0.00     0.000 A 
ATOM     21  C   UNL     1      88.619  43.527  43.292  1.00  0.00     0.000 A 
ENDBRANCH   5  16
TORSDOF 3
ENDMDL
MODEL 5
REMARK VINA RESULT:    -7.611      6.608      7.812
REMARK INTER + INTRA:          -9.060
REMARK INTER:                  -8.682
REMARK INTRA:                  -0.377
REMARK UNBOUND:                -0.336
REMARK SMILES COc1cc(O)c2c(c1)OC(c1ccccc1)CC2=O
REMARK SMILES IDX 3 1 9 2 8 3 10 4 11 5 18 6 19 7 20 8 7 9 5 10 4 11 2 12 1 13
REMARK SMILES IDX 6 14 12 16 13 17 17 18 14 19 16 20 15 21
REMARK H PARENT 6 15
ROOT
ATOM      1  C   UNL     1      84.750  54.572  47.476  1.00  0.00     0.126 A 
ATOM      2  C   UNL     1      85.641  53.660  46.897  1.00  0.00     0.093 A 
ATOM      3  C   UNL     1      86.023  53.791  45.562  1.00  0.00     0.138 A 
ATOM      4  O   UNL     1      86.893  52.851  45.076  1.00  0.00    -0.484 OA
ATOM      5  C   UNL     1      86.827  52.711  43.647  1.00  0.00     0.211 C 
ATOM      6  C   UNL     1      87.074  54.046  42.957  1.00  0.00     0.131 C 
ATOM      7  C   UNL     1      86.023  55.010  43.421  1.00  0.00     0.174 C 
ATOM      8  O   UNL     1      85.603  55.932  42.724  1.00  0.00    -0.294 OA
ATOM      9  C   UNL     1      85.541  54.857  44.806  1.00  0.00     0.102 A 
ATOM     10  C   UNL     1      84.650  55.769  45.379  1.00  0.00     0.133 A 
ATOM     11  C   UNL     1      84.250  55.626  46.707  1.00  0.00     0.093 A 
ENDROOT
BRANCH   1  12
ATOM     12  O   UNL     1      84.451  54.321  48.786  1.00  0.00    -0.496 OA
ATOM     13  C   UNL     1      84.109  52.982  49.124  1.00  0.00     0.278 C 
ENDBRANCH   1  12
BRANCH  10  14
ATOM     14  O   UNL     1      84.133  56.836  44.693  1.00  0.00    -0.507 OA
ATOM     15  H   UNL     1      83.207  56.976  44.994  1.00  0.00     0.293 HD
ENDBRANCH  10  14
BRANCH   5  16
ATOM     16  C   UNL     1      87.856  51.686  43.204  1.00  0.00    -0.007 A 
ATOM     17  C   UNL     1      88.648  51.931  42.072  1.00  0.00     0.007 A 
ATOM     18  C   UNL     1      88.066  50.501  43.928  1.00  0.00     0.007 A 
ATOM     19  C   UNL     1      89.617  51.010  41.668  1.00  0.00     0.000 A 
ATOM     20  C   UNL     1      89.035  49.582  43.522  1.00  0.00     0.000 A 
ATOM     21  C   UNL     1      89.809  49.837  42.392  1.00  0.00     0.000 A 
ENDBRANCH   5  16
TORSDOF 3
ENDMDL
MODEL 6
REMARK VINA RESULT:    -7.595      3.781      6.565
REMARK INTER + INTRA:          -9.041
REMARK INTER:                  -8.667
REMARK INTRA:                  -0.374
REMARK UNBOUND:                -0.336
REMARK SMILES COc1cc(O)c2c(c1)OC(c1ccccc1)CC2=O
REMARK SMILES IDX 3 1 9 2 8 3 10 4 11 5 18 6 19 7 20 8 7 9 5 10 4 11 2 12 1 13
REMARK SMILES IDX 6 14 12 16 13 17 17 18 14 19 16 20 15 21
REMARK H PARENT 6 15
ROOT
ATOM      1  C   UNL     1      84.266  45.894  43.888  1.00  0.00     0.126 A 
ATOM      2  C   UNL     1      84.838  47.115  43.511  1.00  0.00     0.093 A 
ATOM      3  C   UNL     1      86.147  47.170  43.036  1.00  0.00     0.138 A 
ATOM      4  O   UNL     1      86.628  48.406  42.696  1.00  0.00    -0.484 OA
ATOM      5  C   UNL     1      88.063  48.483  42.738  1.00  0.00     0.211 C 
ATOM      6  C   UNL     1      88.691  47.423  41.844  1.00  0.00     0.131 C 
ATOM      7  C   UNL     1      88.241  46.077  42.330  1.00  0.00     0.174 C 
ATOM      8  O   UNL     1      88.921  45.060  42.216  1.00  0.00    -0.294 OA
ATOM      9  C   UNL     1      86.885  45.995  42.905  1.00  0.00     0.102 A 
ATOM     10  C   UNL     1      86.320  44.773  43.282  1.00  0.00     0.133 A 
ATOM     11  C   UNL     1      85.018  44.721  43.777  1.00  0.00     0.093 A 
ENDROOT
BRANCH   1  12
ATOM     12  O   UNL     1      82.982  45.983  44.346  1.00  0.00    -0.496 OA
ATOM     13  C   UNL     1      82.050  46.670  43.519  1.00  0.00     0.278 C 
ENDBRANCH   1  12
BRANCH  10  14
ATOM     14  O   UNL     1      86.989  43.582  43.185  1.00  0.00    -0.507 OA
ATOM     15  H   UNL     1      87.954  43.773  43.154  1.00  0.00     0.293 HD
ENDBRANCH  10  14
BRANCH   5  16
ATOM     16  C   UNL     1      88.496  49.871  42.302  1.00  0.00    -0.007 A 
ATOM     17  C   UNL     1      87.756  50.995  42.703  1.00  0.00     0.007 A 
ATOM     18  C   UNL     1      89.653  50.067  41.532  1.00  0.00     0.007 A 
ATOM     19  C   UNL     1      88.157  52.280  42.332  1.00  0.00     0.000 A 
ATOM     20  C   UNL     1      90.052  51.353  41.163  1.00  0.00     0.000 A 
ATOM     21  C   UNL     1      89.304  52.458  41.562  1.00  0.00     0.000 A 
ENDBRANCH   5  16
TORSDOF 3
ENDMDL
MODEL 7
REMARK VINA RESULT:    -7.563      6.511      7.983
REMARK INTER + INTRA:          -9.005
REMARK INTER:                  -8.668
REMARK INTRA:                  -0.336
REMARK UNBOUND:                -0.336
REMARK SMILES COc1cc(O)c2c(c1)OC(c1ccccc1)CC2=O
REMARK SMILES IDX 3 1 9 2 8 3 10 4 11 5 18 6 19 7 20 8 7 9 5 10 4 11 2 12 1 13
REMARK SMILES IDX 6 14 12 16 13 17 17 18 14 19 16 20 15 21
REMARK H PARENT 6 15
ROOT
ATOM      1  C   UNL     1      84.301  54.837  41.413  1.00  0.00     0.126 A 
ATOM      2  C   UNL     1      84.685  53.864  42.344  1.00  0.00     0.093 A 
ATOM      3  C   UNL     1      85.192  54.235  43.589  1.00  0.00     0.138 A 
ATOM      4  O   UNL     1      85.548  53.218  44.436  1.00  0.00    -0.484 OA
ATOM      5  C   UNL     1      86.518  53.619  45.418  1.00  0.00     0.211 C 
ATOM      6  C   UNL     1      86.015  54.809  46.225  1.00  0.00     0.131 C 
ATOM      7  C   UNL     1      85.759  55.941  45.274  1.00  0.00     0.174 C 
ATOM      8  O   UNL     1      85.870  57.123  45.592  1.00  0.00    -0.294 OA
ATOM      9  C   UNL     1      85.289  55.584  43.923  1.00  0.00     0.102 A 
ATOM     10  C   UNL     1      84.909  56.559  42.996  1.00  0.00     0.133 A 
ATOM     11  C   UNL     1      84.422  56.189  41.743  1.00  0.00     0.093 A 
ENDROOT
BRANCH   1  12
ATOM     12  O   UNL     1      83.831  54.338  40.230  1.00  0.00    -0.496 OA
ATOM     13  C   UNL     1      83.887  55.201  39.100  1.00  0.00     0.278 C 
ENDBRANCH   1  12
BRANCH  10  14
ATOM     14  O   UNL     1      84.983  57.901  43.256  1.00  0.00    -0.507 OA
ATOM     15  H   UNL     1      84.764  58.043  44.204  1.00  0.00     0.293 HD
ENDBRANCH  10  14
BRANCH   5  16
ATOM     16  C   UNL     1      86.810  52.443  46.332  1.00  0.00    -0.007 A 
ATOM     17  C   UNL     1      86.166  52.344  47.575  1.00  0.00     0.007 A 
ATOM     18  C   UNL     1      87.688  51.418  45.946  1.00  0.00     0.007 A 
ATOM     19  C   UNL     1      86.404  51.254  48.415  1.00  0.00     0.000 A 
ATOM     20  C   UNL     1      87.924  50.329  46.787  1.00  0.00     0.000 A 
ATOM     21  C   UNL     1      87.283  50.248  48.021  1.00  0.00     0.000 A 
ENDBRANCH   5  16
TORSDOF 3
ENDMDL
MODEL 8
REMARK VINA RESULT:    -7.554      4.980      7.828
REMARK INTER + INTRA:          -8.994
REMARK INTER:                  -8.639
REMARK INTRA:                  -0.355
REMARK UNBOUND:                -0.336
REMARK SMILES COc1cc(O)c2c(c1)OC(c1ccccc1)CC2=O
REMARK SMILES IDX 3 1 9 2 8 3 10 4 11 5 18 6 19 7 20 8 7 9 5 10 4 11 2 12 1 13
REMARK SMILES IDX 6 14 12 16 13 17 17 18 14 19 16 20 15 21
REMARK H PARENT 6 15
ROOT
ATOM      1  C   UNL     1      86.322  46.800  43.003  1.00  0.00     0.126 A 
ATOM      2  C   UNL     1      85.980  47.690  44.028  1.00  0.00     0.093 A 
ATOM      3  C   UNL     1      86.630  48.917  44.148  1.00  0.00     0.138 A 
ATOM      4  O   UNL     1      86.236  49.723  45.183  1.00  0.00    -0.484 OA
ATOM      5  C   UNL     1      87.247  50.668  45.576  1.00  0.00     0.211 C 
ATOM      6  C   UNL     1      87.680  51.524  44.393  1.00  0.00     0.131 C 
ATOM      7  C   UNL     1      88.223  50.612  43.333  1.00  0.00     0.174 C 
ATOM      8  O   UNL     1      89.099  50.951  42.540  1.00  0.00    -0.294 OA
ATOM      9  C   UNL     1      87.608  49.277  43.222  1.00  0.00     0.102 A 
ATOM     10  C   UNL     1      87.955  48.390  42.198  1.00  0.00     0.133 A 
ATOM     11  C   UNL     1      87.319  47.154  42.090  1.00  0.00     0.093 A 
ENDROOT
BRANCH   1  12
ATOM     12  O   UNL     1      85.617  45.629  43.006  1.00  0.00    -0.496 OA
ATOM     13  C   UNL     1      85.516  44.941  44.247  1.00  0.00     0.278 C 
ENDBRANCH   1  12
BRANCH  10  14
ATOM     14  O   UNL     1      88.908  48.676  41.258  1.00  0.00    -0.507 OA
ATOM     15  H   UNL     1      88.501  49.254  40.573  1.00  0.00     0.293 HD
ENDBRANCH  10  14
BRANCH   5  16
ATOM     16  C   UNL     1      86.700  51.541  46.691  1.00  0.00    -0.007 A 
ATOM     17  C   UNL     1      86.324  52.866  46.424  1.00  0.00     0.007 A 
ATOM     18  C   UNL     1      86.521  51.039  47.991  1.00  0.00     0.007 A 
ATOM     19  C   UNL     1      85.794  53.673  47.434  1.00  0.00     0.000 A 
ATOM     20  C   UNL     1      85.991  51.847  48.998  1.00  0.00     0.000 A 
ATOM     21  C   UNL     1      85.629  53.163  48.719  1.00  0.00     0.000 A 
ENDBRANCH   5  16
TORSDOF 3
ENDMDL
MODEL 9
REMARK VINA RESULT:    -7.474      3.748      6.869
REMARK INTER + INTRA:          -8.903
REMARK INTER:                  -8.552
REMARK INTRA:                  -0.350
REMARK UNBOUND:                -0.336
REMARK SMILES COc1cc(O)c2c(c1)OC(c1ccccc1)CC2=O
REMARK SMILES IDX 3 1 9 2 8 3 10 4 11 5 18 6 19 7 20 8 7 9 5 10 4 11 2 12 1 13
REMARK SMILES IDX 6 14 12 16 13 17 17 18 14 19 16 20 15 21
REMARK H PARENT 6 15
ROOT
ATOM      1  C   UNL     1      86.830  44.240  42.910  1.00  0.00     0.126 A 
ATOM      2  C   UNL     1      87.556  45.359  42.486  1.00  0.00     0.093 A 
ATOM      3  C   UNL     1      87.098  46.647  42.760  1.00  0.00     0.138 A 
ATOM      4  O   UNL     1      87.869  47.684  42.304  1.00  0.00    -0.484 OA
ATOM      5  C   UNL     1      87.126  48.903  42.134  1.00  0.00     0.211 C 
ATOM      6  C   UNL     1      86.437  49.306  43.430  1.00  0.00     0.131 C 
ATOM      7  C   UNL     1      85.508  48.198  43.828  1.00  0.00     0.174 C 
ATOM      8  O   UNL     1      84.469  48.386  44.457  1.00  0.00    -0.294 OA
ATOM      9  C   UNL     1      85.924  46.824  43.490  1.00  0.00     0.102 A 
ATOM     10  C   UNL     1      85.194  45.710  43.913  1.00  0.00     0.133 A 
ATOM     11  C   UNL     1      85.640  44.421  43.620  1.00  0.00     0.093 A 
ENDROOT
BRANCH   1  12
ATOM     12  O   UNL     1      87.383  43.038  42.566  1.00  0.00    -0.496 OA
ATOM     13  C   UNL     1      87.935  42.258  43.620  1.00  0.00     0.278 C 
ENDBRANCH   1  12
BRANCH  10  14
ATOM     14  O   UNL     1      84.031  45.810  44.629  1.00  0.00    -0.507 OA
ATOM     15  H   UNL     1      83.921  44.985  45.154  1.00  0.00     0.293 HD
ENDBRANCH  10  14
BRANCH   5  16
ATOM     16  C   UNL     1      88.072  49.997  41.673  1.00  0.00    -0.007 A 
ATOM     17  C   UNL     1      87.568  51.128  41.011  1.00  0.00     0.007 A 
ATOM     18  C   UNL     1      89.451  49.926  41.927  1.00  0.00     0.007 A 
ATOM     19  C   UNL     1      88.422  52.155  40.605  1.00  0.00     0.000 A 
ATOM     20  C   UNL     1      90.303  50.954  41.520  1.00  0.00     0.000 A 
ATOM     21  C   UNL     1      89.789  52.067  40.859  1.00  0.00     0.000 A 
ENDBRANCH   5  16
TORSDOF 3
ENDMDL
