MODEL 1
REMARK VINA RESULT:    -7.276      0.000      0.000
REMARK INTER + INTRA:          -9.087
REMARK INTER:                  -8.650
REMARK INTRA:                  -0.437
REMARK UNBOUND:                -0.535
REMARK SMILES COc1ccc(-c2cc3ccc(O)cc3o2)c(O)c1
REMARK SMILES IDX 7 1 8 2 9 3 15 4 16 5 14 6 12 7 11 8 10 9 6 10 3 11 4 12
REMARK SMILES IDX 19 13 5 14 17 15 2 16 1 17 18 18 13 20
REMARK H PARENT 18 19 13 21
ROOT
ATOM      1  C   UNL     1      83.569  46.236  43.405  1.00  0.00     0.139 A 
ATOM      2  C   UNL     1      84.108  44.961  43.382  1.00  0.00     0.059 A 
ATOM      3  C   UNL     1      85.461  45.086  42.969  1.00  0.00     0.021 A 
ATOM      4  C   UNL     1      85.668  46.443  42.762  1.00  0.00     0.138 A 
ATOM      5  O   UNL     1      84.527  47.138  43.025  1.00  0.00    -0.456 OA
ATOM      6  C   UNL     1      86.875  47.002  42.346  1.00  0.00     0.093 A 
ATOM      7  C   UNL     1      87.917  46.100  42.134  1.00  0.00     0.119 A 
ATOM      8  C   UNL     1      87.760  44.728  42.328  1.00  0.00     0.047 A 
ATOM      9  C   UNL     1      86.531  44.200  42.748  1.00  0.00     0.016 A 
ENDROOT
BRANCH   1  10
ATOM     10  C   UNL     1      82.249  46.784  43.737  1.00  0.00     0.059 A 
ATOM     11  C   UNL     1      79.654  47.744  44.381  1.00  0.00     0.122 A 
ATOM     12  C   UNL     1      79.885  46.377  44.245  1.00  0.00     0.047 A 
ATOM     13  C   UNL     1      80.715  48.630  44.197  1.00  0.00     0.093 A 
ATOM     14  C   UNL     1      81.168  45.906  43.926  1.00  0.00     0.020 A 
ATOM     15  C   UNL     1      81.990  48.158  43.879  1.00  0.00     0.130 A 
BRANCH  11  16
ATOM     16  O   UNL     1      78.459  48.332  44.686  1.00  0.00    -0.497 OA
ATOM     17  C   UNL     1      78.486  49.713  45.028  1.00  0.00     0.278 C 
ENDBRANCH  11  16
BRANCH  15  18
ATOM     18  O   UNL     1      82.950  49.126  43.723  1.00  0.00    -0.507 OA
ATOM     19  H   UNL     1      83.384  49.247  44.589  1.00  0.00     0.293 HD
ENDBRANCH  15  18
ENDBRANCH   1  10
BRANCH   7  20
ATOM     20  O   UNL     1      89.145  46.534  41.724  1.00  0.00    -0.508 OA
ATOM     21  H   UNL     1      89.804  45.850  41.929  1.00  0.00     0.293 HD
ENDBRANCH   7  20
TORSDOF 4
ENDMDL
MODEL 2
REMARK VINA RESULT:    -7.226      6.633      9.752
REMARK INTER + INTRA:          -9.028
REMARK INTER:                  -8.533
REMARK INTRA:                  -0.495
REMARK UNBOUND:                -0.535
REMARK SMILES COc1ccc(-c2cc3ccc(O)cc3o2)c(O)c1
REMARK SMILES IDX 7 1 8 2 9 3 15 4 16 5 14 6 12 7 11 8 10 9 6 10 3 11 4 12
REMARK SMILES IDX 19 13 5 14 17 15 2 16 1 17 18 18 13 20
REMARK H PARENT 18 19 13 21
ROOT
ATOM      1  C   UNL     1      86.754  52.776  45.025  1.00  0.00     0.139 A 
ATOM      2  C   UNL     1      86.579  52.690  46.396  1.00  0.00     0.059 A 
ATOM      3  C   UNL     1      85.706  53.744  46.774  1.00  0.00     0.021 A 
ATOM      4  C   UNL     1      85.397  54.417  45.600  1.00  0.00     0.138 A 
ATOM      5  O   UNL     1      86.030  53.834  44.544  1.00  0.00    -0.456 OA
ATOM      6  C   UNL     1      84.559  55.528  45.524  1.00  0.00     0.093 A 
ATOM      7  C   UNL     1      84.017  55.958  46.735  1.00  0.00     0.119 A 
ATOM      8  C   UNL     1      84.296  55.316  47.941  1.00  0.00     0.047 A 
ATOM      9  C   UNL     1      85.144  54.201  47.980  1.00  0.00     0.016 A 
ENDROOT
BRANCH   1  10
ATOM     10  C   UNL     1      87.519  52.004  44.040  1.00  0.00     0.059 A 
ATOM     11  C   UNL     1      89.002  50.426  42.202  1.00  0.00     0.122 A 
ATOM     12  C   UNL     1      88.644  49.908  43.444  1.00  0.00     0.047 A 
ATOM     13  C   UNL     1      88.621  51.727  41.876  1.00  0.00     0.093 A 
ATOM     14  C   UNL     1      87.911  50.690  44.350  1.00  0.00     0.020 A 
ATOM     15  C   UNL     1      87.893  52.503  42.781  1.00  0.00     0.130 A 
BRANCH  11  16
ATOM     16  O   UNL     1      89.711  49.773  41.232  1.00  0.00    -0.497 OA
ATOM     17  C   UNL     1      90.508  48.671  41.646  1.00  0.00     0.278 C 
ENDBRANCH  11  16
BRANCH  15  18
ATOM     18  O   UNL     1      87.577  53.765  42.346  1.00  0.00    -0.507 OA
ATOM     19  H   UNL     1      88.297  54.359  42.633  1.00  0.00     0.293 HD
ENDBRANCH  15  18
ENDBRANCH   1  10
BRANCH   7  20
ATOM     20  O   UNL     1      83.182  57.038  46.782  1.00  0.00    -0.508 OA
ATOM     21  H   UNL     1      82.400  56.806  47.309  1.00  0.00     0.293 HD
ENDBRANCH   7  20
TORSDOF 4
ENDMDL
MODEL 3
REMARK VINA RESULT:    -7.179      1.295      7.298
REMARK INTER + INTRA:          -8.973
REMARK INTER:                  -8.458
REMARK INTRA:                  -0.515
REMARK UNBOUND:                -0.535
REMARK SMILES COc1ccc(-c2cc3ccc(O)cc3o2)c(O)c1
REMARK SMILES IDX 7 1 8 2 9 3 15 4 16 5 14 6 12 7 11 8 10 9 6 10 3 11 4 12
REMARK SMILES IDX 19 13 5 14 17 15 2 16 1 17 18 18 13 20
REMARK H PARENT 18 19 13 21
ROOT
ATOM      1  C   UNL     1      83.874  47.064  43.391  1.00  0.00     0.139 A 
ATOM      2  C   UNL     1      83.343  48.331  43.561  1.00  0.00     0.059 A 
ATOM      3  C   UNL     1      81.951  48.175  43.794  1.00  0.00     0.021 A 
ATOM      4  C   UNL     1      81.714  46.808  43.752  1.00  0.00     0.138 A 
ATOM      5  O   UNL     1      82.873  46.136  43.509  1.00  0.00    -0.456 OA
ATOM      6  C   UNL     1      80.464  46.218  43.934  1.00  0.00     0.093 A 
ATOM      7  C   UNL     1      79.410  47.099  44.172  1.00  0.00     0.119 A 
ATOM      8  C   UNL     1      79.596  48.480  44.223  1.00  0.00     0.047 A 
ATOM      9  C   UNL     1      80.868  49.039  44.035  1.00  0.00     0.016 A 
ENDROOT
BRANCH   1  10
ATOM     10  C   UNL     1      85.220  46.545  43.125  1.00  0.00     0.059 A 
ATOM     11  C   UNL     1      87.851  45.633  42.561  1.00  0.00     0.122 A 
ATOM     12  C   UNL     1      87.446  46.905  42.163  1.00  0.00     0.047 A 
ATOM     13  C   UNL     1      86.945  44.817  43.238  1.00  0.00     0.093 A 
ATOM     14  C   UNL     1      86.146  47.353  42.443  1.00  0.00     0.020 A 
ATOM     15  C   UNL     1      85.652  45.266  43.515  1.00  0.00     0.130 A 
BRANCH  11  16
ATOM     16  O   UNL     1      89.082  45.077  42.351  1.00  0.00    -0.497 OA
ATOM     17  C   UNL     1      90.211  45.926  42.516  1.00  0.00     0.278 C 
ENDBRANCH  11  16
BRANCH  15  18
ATOM     18  O   UNL     1      84.855  44.374  44.187  1.00  0.00    -0.507 OA
ATOM     19  H   UNL     1      84.789  44.682  45.111  1.00  0.00     0.293 HD
ENDBRANCH  15  18
ENDBRANCH   1  10
BRANCH   7  20
ATOM     20  O   UNL     1      78.140  46.634  44.364  1.00  0.00    -0.508 OA
ATOM     21  H   UNL     1      77.739  47.116  45.107  1.00  0.00     0.293 HD
ENDBRANCH   7  20
TORSDOF 4
ENDMDL
MODEL 4
REMARK VINA RESULT:    -7.127      4.094      6.993
REMARK INTER + INTRA:          -8.911
REMARK INTER:                  -8.376
REMARK INTRA:                  -0.535
REMARK UNBOUND:                -0.535
REMARK SMILES COc1ccc(-c2cc3ccc(O)cc3o2)c(O)c1
REMARK SMILES IDX 7 1 8 2 9 3 15 4 16 5 14 6 12 7 11 8 10 9 6 10 3 11 4 12
REMARK SMILES IDX 19 13 5 14 17 15 2 16 1 17 18 18 13 20
REMARK H PARENT 18 19 13 21
ROOT
ATOM      1  C   UNL     1      82.605  50.190  43.255  1.00  0.00     0.139 A 
ATOM      2  C   UNL     1      83.084  48.916  43.507  1.00  0.00     0.059 A 
ATOM      3  C   UNL     1      81.959  48.090  43.770  1.00  0.00     0.021 A 
ATOM      4  C   UNL     1      80.850  48.917  43.662  1.00  0.00     0.138 A 
ATOM      5  O   UNL     1      81.238  50.185  43.351  1.00  0.00    -0.456 OA
ATOM      6  C   UNL     1      79.534  48.500  43.846  1.00  0.00     0.093 A 
ATOM      7  C   UNL     1      79.366  47.152  44.160  1.00  0.00     0.119 A 
ATOM      8  C   UNL     1      80.447  46.279  44.280  1.00  0.00     0.047 A 
ATOM      9  C   UNL     1      81.759  46.734  44.088  1.00  0.00     0.016 A 
ENDROOT
BRANCH   1  10
ATOM     10  C   UNL     1      83.233  51.473  42.923  1.00  0.00     0.059 A 
ATOM     11  C   UNL     1      84.526  53.938  42.356  1.00  0.00     0.122 A 
ATOM     12  C   UNL     1      85.041  53.081  43.325  1.00  0.00     0.047 A 
ATOM     13  C   UNL     1      83.369  53.568  41.671  1.00  0.00     0.093 A 
ATOM     14  C   UNL     1      84.400  51.864  43.603  1.00  0.00     0.020 A 
ATOM     15  C   UNL     1      82.733  52.356  41.951  1.00  0.00     0.130 A 
BRANCH  11  16
ATOM     16  O   UNL     1      85.050  55.147  41.990  1.00  0.00    -0.497 OA
ATOM     17  C   UNL     1      84.499  56.304  42.608  1.00  0.00     0.278 C 
ENDBRANCH  11  16
BRANCH  15  18
ATOM     18  O   UNL     1      81.606  52.104  41.212  1.00  0.00    -0.507 OA
ATOM     19  H   UNL     1      80.862  52.014  41.838  1.00  0.00     0.293 HD
ENDBRANCH  15  18
ENDBRANCH   1  10
BRANCH   7  20
ATOM     20  O   UNL     1      78.120  46.631  44.364  1.00  0.00    -0.508 OA
ATOM     21  H   UNL     1      77.925  45.998  43.653  1.00  0.00     0.293 HD
ENDBRANCH   7  20
TORSDOF 4
ENDMDL
MODEL 5
REMARK VINA RESULT:    -7.086      1.790      2.483
REMARK INTER + INTRA:          -8.863
REMARK INTER:                  -8.392
REMARK INTRA:                  -0.471
REMARK UNBOUND:                -0.535
REMARK SMILES COc1ccc(-c2cc3ccc(O)cc3o2)c(O)c1
REMARK SMILES IDX 7 1 8 2 9 3 15 4 16 5 14 6 12 7 11 8 10 9 6 10 3 11 4 12
REMARK SMILES IDX 19 13 5 14 17 15 2 16 1 17 18 18 13 20
REMARK H PARENT 18 19 13 21
ROOT
ATOM      1  C   UNL     1      83.724  47.095  43.362  1.00  0.00     0.139 A 
ATOM      2  C   UNL     1      84.983  47.395  42.869  1.00  0.00     0.059 A 
ATOM      3  C   UNL     1      85.781  46.230  43.020  1.00  0.00     0.021 A 
ATOM      4  C   UNL     1      84.954  45.280  43.601  1.00  0.00     0.138 A 
ATOM      5  O   UNL     1      83.713  45.800  43.808  1.00  0.00    -0.456 OA
ATOM      6  C   UNL     1      85.347  43.982  43.921  1.00  0.00     0.093 A 
ATOM      7  C   UNL     1      86.671  43.661  43.621  1.00  0.00     0.119 A 
ATOM      8  C   UNL     1      87.542  44.581  43.036  1.00  0.00     0.047 A 
ATOM      9  C   UNL     1      87.111  45.878  42.727  1.00  0.00     0.016 A 
ENDROOT
BRANCH   1  10
ATOM     10  C   UNL     1      82.470  47.845  43.494  1.00  0.00     0.059 A 
ATOM     11  C   UNL     1      80.081  49.369  43.681  1.00  0.00     0.122 A 
ATOM     12  C   UNL     1      81.121  49.789  42.855  1.00  0.00     0.047 A 
ATOM     13  C   UNL     1      80.232  48.192  44.413  1.00  0.00     0.093 A 
ATOM     14  C   UNL     1      82.300  49.034  42.765  1.00  0.00     0.020 A 
ATOM     15  C   UNL     1      81.408  47.443  44.321  1.00  0.00     0.130 A 
BRANCH  11  16
ATOM     16  O   UNL     1      78.886  50.009  43.860  1.00  0.00    -0.497 OA
ATOM     17  C   UNL     1      78.220  49.799  45.099  1.00  0.00     0.278 C 
ENDBRANCH  11  16
BRANCH  15  18
ATOM     18  O   UNL     1      81.436  46.306  45.088  1.00  0.00    -0.507 OA
ATOM     19  H   UNL     1      81.289  46.576  46.014  1.00  0.00     0.293 HD
ENDBRANCH  15  18
ENDBRANCH   1  10
BRANCH   7  20
ATOM     20  O   UNL     1      87.168  42.418  43.892  1.00  0.00    -0.508 OA
ATOM     21  H   UNL     1      87.956  42.511  44.451  1.00  0.00     0.293 HD
ENDBRANCH   7  20
TORSDOF 4
ENDMDL
MODEL 6
REMARK VINA RESULT:    -6.972      4.574      7.140
REMARK INTER + INTRA:          -8.729
REMARK INTER:                  -8.198
REMARK INTRA:                  -0.531
REMARK UNBOUND:                -0.535
REMARK SMILES COc1ccc(-c2cc3ccc(O)cc3o2)c(O)c1
REMARK SMILES IDX 7 1 8 2 9 3 15 4 16 5 14 6 12 7 11 8 10 9 6 10 3 11 4 12
REMARK SMILES IDX 19 13 5 14 17 15 2 16 1 17 18 18 13 20
REMARK H PARENT 18 19 13 21
ROOT
ATOM      1  C   UNL     1      87.378  48.334  42.214  1.00  0.00     0.139 A 
ATOM      2  C   UNL     1      86.367  47.957  43.082  1.00  0.00     0.059 A 
ATOM      3  C   UNL     1      86.442  46.547  43.225  1.00  0.00     0.021 A 
ATOM      4  C   UNL     1      87.505  46.143  42.429  1.00  0.00     0.138 A 
ATOM      5  O   UNL     1      88.070  47.221  41.818  1.00  0.00    -0.456 OA
ATOM      6  C   UNL     1      87.924  44.823  42.284  1.00  0.00     0.093 A 
ATOM      7  C   UNL     1      87.198  43.876  43.005  1.00  0.00     0.119 A 
ATOM      8  C   UNL     1      86.122  44.230  43.819  1.00  0.00     0.047 A 
ATOM      9  C   UNL     1      85.727  45.569  43.941  1.00  0.00     0.016 A 
ENDROOT
BRANCH   1  10
ATOM     10  C   UNL     1      87.831  49.617  41.665  1.00  0.00     0.059 A 
ATOM     11  C   UNL     1      88.608  52.138  40.611  1.00  0.00     0.122 A 
ATOM     12  C   UNL     1      87.289  51.913  40.998  1.00  0.00     0.047 A 
ATOM     13  C   UNL     1      89.537  51.108  40.749  1.00  0.00     0.093 A 
ATOM     14  C   UNL     1      86.908  50.667  41.518  1.00  0.00     0.020 A 
ATOM     15  C   UNL     1      89.155  49.868  41.267  1.00  0.00     0.130 A 
BRANCH  11  16
ATOM     16  O   UNL     1      89.107  53.299  40.092  1.00  0.00    -0.497 OA
ATOM     17  C   UNL     1      90.521  53.397  39.969  1.00  0.00     0.278 C 
ENDBRANCH  11  16
BRANCH  15  18
ATOM     18  O   UNL     1      90.158  48.938  41.354  1.00  0.00    -0.507 OA
ATOM     19  H   UNL     1      90.730  49.052  40.570  1.00  0.00     0.293 HD
ENDBRANCH  15  18
ENDBRANCH   1  10
BRANCH   7  20
ATOM     20  O   UNL     1      87.518  42.549  42.939  1.00  0.00    -0.508 OA
ATOM     21  H   UNL     1      88.036  42.313  43.726  1.00  0.00     0.293 HD
ENDBRANCH   7  20
TORSDOF 4
ENDMDL
MODEL 7
REMARK VINA RESULT:    -6.885      4.739      6.546
REMARK INTER + INTRA:          -8.627
REMARK INTER:                  -8.419
REMARK INTRA:                  -0.209
REMARK UNBOUND:                -0.535
REMARK SMILES COc1ccc(-c2cc3ccc(O)cc3o2)c(O)c1
REMARK SMILES IDX 7 1 8 2 9 3 15 4 16 5 14 6 12 7 11 8 10 9 6 10 3 11 4 12
REMARK SMILES IDX 19 13 5 14 17 15 2 16 1 17 18 18 13 20
REMARK H PARENT 18 19 13 21
ROOT
ATOM      1  C   UNL     1      82.704  51.440  42.570  1.00  0.00     0.139 A 
ATOM      2  C   UNL     1      82.336  52.403  41.647  1.00  0.00     0.059 A 
ATOM      3  C   UNL     1      83.233  53.494  41.799  1.00  0.00     0.021 A 
ATOM      4  C   UNL     1      84.103  53.127  42.816  1.00  0.00     0.138 A 
ATOM      5  O   UNL     1      83.785  51.887  43.282  1.00  0.00    -0.456 OA
ATOM      6  C   UNL     1      85.149  53.920  43.284  1.00  0.00     0.093 A 
ATOM      7  C   UNL     1      85.292  55.159  42.660  1.00  0.00     0.119 A 
ATOM      8  C   UNL     1      84.444  55.574  41.634  1.00  0.00     0.047 A 
ATOM      9  C   UNL     1      83.402  54.750  41.188  1.00  0.00     0.016 A 
ENDROOT
BRANCH   1  10
ATOM     10  C   UNL     1      82.196  50.108  42.918  1.00  0.00     0.059 A 
ATOM     11  C   UNL     1      81.315  47.495  43.599  1.00  0.00     0.122 A 
ATOM     12  C   UNL     1      82.676  47.775  43.500  1.00  0.00     0.047 A 
ATOM     13  C   UNL     1      80.396  48.515  43.359  1.00  0.00     0.093 A 
ATOM     14  C   UNL     1      83.108  49.067  43.164  1.00  0.00     0.020 A 
ATOM     15  C   UNL     1      80.829  49.800  43.023  1.00  0.00     0.130 A 
BRANCH  11  16
ATOM     16  O   UNL     1      80.763  46.285  43.916  1.00  0.00    -0.497 OA
ATOM     17  C   UNL     1      80.017  46.213  45.125  1.00  0.00     0.278 C 
ENDBRANCH  11  16
BRANCH  15  18
ATOM     18  O   UNL     1      79.831  50.717  42.812  1.00  0.00    -0.507 OA
ATOM     19  H   UNL     1      80.094  51.260  42.044  1.00  0.00     0.293 HD
ENDBRANCH  15  18
ENDBRANCH   1  10
BRANCH   7  20
ATOM     20  O   UNL     1      86.283  56.021  43.037  1.00  0.00    -0.508 OA
ATOM     21  H   UNL     1      86.812  55.604  43.736  1.00  0.00     0.293 HD
ENDBRANCH   7  20
TORSDOF 4
ENDMDL
MODEL 8
REMARK VINA RESULT:    -6.839      6.727      9.909
REMARK INTER + INTRA:          -8.573
REMARK INTER:                  -8.120
REMARK INTRA:                  -0.453
REMARK UNBOUND:                -0.535
REMARK SMILES COc1ccc(-c2cc3ccc(O)cc3o2)c(O)c1
REMARK SMILES IDX 7 1 8 2 9 3 15 4 16 5 14 6 12 7 11 8 10 9 6 10 3 11 4 12
REMARK SMILES IDX 19 13 5 14 17 15 2 16 1 17 18 18 13 20
REMARK H PARENT 18 19 13 21
ROOT
ATOM      1  C   UNL     1      86.878  53.193  42.861  1.00  0.00     0.139 A 
ATOM      2  C   UNL     1      85.708  53.577  42.229  1.00  0.00     0.059 A 
ATOM      3  C   UNL     1      85.413  54.898  42.659  1.00  0.00     0.021 A 
ATOM      4  C   UNL     1      86.431  55.245  43.536  1.00  0.00     0.138 A 
ATOM      5  O   UNL     1      87.316  54.217  43.659  1.00  0.00    -0.456 OA
ATOM      6  C   UNL     1      86.525  56.471  44.190  1.00  0.00     0.093 A 
ATOM      7  C   UNL     1      85.505  57.381  43.916  1.00  0.00     0.119 A 
ATOM      8  C   UNL     1      84.460  57.081  43.042  1.00  0.00     0.047 A 
ATOM      9  C   UNL     1      84.397  55.836  42.401  1.00  0.00     0.016 A 
ENDROOT
BRANCH   1  10
ATOM     10  C   UNL     1      87.698  51.977  42.848  1.00  0.00     0.059 A 
ATOM     11  C   UNL     1      89.310  49.641  42.719  1.00  0.00     0.122 A 
ATOM     12  C   UNL     1      89.180  50.469  41.606  1.00  0.00     0.047 A 
ATOM     13  C   UNL     1      88.638  49.977  43.893  1.00  0.00     0.093 A 
ATOM     14  C   UNL     1      88.383  51.622  41.673  1.00  0.00     0.020 A 
ATOM     15  C   UNL     1      87.845  51.125  43.956  1.00  0.00     0.130 A 
BRANCH  11  16
ATOM     16  O   UNL     1      90.051  48.495  42.787  1.00  0.00    -0.497 OA
ATOM     17  C   UNL     1      91.226  48.531  43.588  1.00  0.00     0.278 C 
ENDBRANCH  11  16
BRANCH  15  18
ATOM     18  O   UNL     1      87.236  51.349  45.165  1.00  0.00    -0.507 OA
ATOM     19  H   UNL     1      87.544  50.655  45.779  1.00  0.00     0.293 HD
ENDBRANCH  15  18
ENDBRANCH   1  10
BRANCH   7  20
ATOM     20  O   UNL     1      85.492  58.616  44.501  1.00  0.00    -0.508 OA
ATOM     21  H   UNL     1      86.073  58.599  45.280  1.00  0.00     0.293 HD
ENDBRANCH   7  20
TORSDOF 4
ENDMDL
MODEL 9
REMARK VINA RESULT:    -6.763      2.365      7.389
REMARK INTER + INTRA:          -8.484
REMARK INTER:                  -7.949
REMARK INTRA:                  -0.535
REMARK UNBOUND:                -0.535
REMARK SMILES COc1ccc(-c2cc3ccc(O)cc3o2)c(O)c1
REMARK SMILES IDX 7 1 8 2 9 3 15 4 16 5 14 6 12 7 11 8 10 9 6 10 3 11 4 12
REMARK SMILES IDX 19 13 5 14 17 15 2 16 1 17 18 18 13 20
REMARK H PARENT 18 19 13 21
ROOT
ATOM      1  C   UNL     1      84.882  48.732  43.509  1.00  0.00     0.139 A 
ATOM      2  C   UNL     1      83.827  49.627  43.577  1.00  0.00     0.059 A 
ATOM      3  C   UNL     1      82.640  48.864  43.736  1.00  0.00     0.021 A 
ATOM      4  C   UNL     1      83.045  47.536  43.755  1.00  0.00     0.138 A 
ATOM      5  O   UNL     1      84.397  47.455  43.618  1.00  0.00    -0.456 OA
ATOM      6  C   UNL     1      82.183  46.451  43.895  1.00  0.00     0.093 A 
ATOM      7  C   UNL     1      80.830  46.766  44.021  1.00  0.00     0.119 A 
ATOM      8  C   UNL     1      80.373  48.084  44.008  1.00  0.00     0.047 A 
ATOM      9  C   UNL     1      81.269  49.152  43.865  1.00  0.00     0.016 A 
ENDROOT
BRANCH   1  10
ATOM     10  C   UNL     1      86.334  48.871  43.352  1.00  0.00     0.059 A 
ATOM     11  C   UNL     1      89.141  49.228  43.109  1.00  0.00     0.122 A 
ATOM     12  C   UNL     1      88.379  50.129  43.848  1.00  0.00     0.047 A 
ATOM     13  C   UNL     1      88.506  48.151  42.493  1.00  0.00     0.093 A 
ATOM     14  C   UNL     1      86.992  49.950  43.966  1.00  0.00     0.020 A 
ATOM     15  C   UNL     1      87.125  47.976  42.612  1.00  0.00     0.130 A 
BRANCH  11  16
ATOM     16  O   UNL     1      90.493  49.287  42.914  1.00  0.00    -0.497 OA
ATOM     17  C   UNL     1      91.281  48.287  43.548  1.00  0.00     0.278 C 
ENDBRANCH  11  16
BRANCH  15  18
ATOM     18  O   UNL     1      86.617  46.880  41.962  1.00  0.00    -0.507 OA
ATOM     19  H   UNL     1      86.072  47.208  41.221  1.00  0.00     0.293 HD
ENDBRANCH  15  18
ENDBRANCH   1  10
BRANCH   7  20
ATOM     20  O   UNL     1      79.893  45.783  44.163  1.00  0.00    -0.508 OA
ATOM     21  H   UNL     1      80.075  45.081  43.517  1.00  0.00     0.293 HD
ENDBRANCH   7  20
TORSDOF 4
ENDMDL
