MODEL 1
REMARK VINA RESULT:    -9.364      0.000      0.000
REMARK INTER + INTRA:         -11.441
REMARK INTER:                 -10.970
REMARK INTRA:                  -0.471
REMARK UNBOUND:                -0.435
REMARK SMILES COc1cc(C2CC(=O)c3c(O)cc(O)cc3O2)cc2c1OC(C)(C)C=C2
REMARK SMILES IDX 6 1 7 2 8 3 9 4 10 5 17 6 18 7 16 8 14 9 13 10 11 11 5 12
REMARK SMILES IDX 3 13 4 14 21 15 20 16 22 17 19 18 27 19 23 20 26 21 24 22
REMARK SMILES IDX 25 23 2 24 1 25 12 26 15 28
REMARK H PARENT 12 27 15 29
ROOT
ATOM      1  C   UNL     1      86.343  54.087  43.795  1.00  0.00     0.211 C 
ATOM      2  C   UNL     1      86.867  55.474  43.450  1.00  0.00     0.131 C 
ATOM      3  C   UNL     1      85.922  56.486  44.028  1.00  0.00     0.174 C 
ATOM      4  O   UNL     1      85.728  57.588  43.520  1.00  0.00    -0.294 OA
ATOM      5  C   UNL     1      85.262  56.133  45.299  1.00  0.00     0.102 A 
ATOM      6  C   UNL     1      85.489  54.863  45.834  1.00  0.00     0.138 A 
ATOM      7  O   UNL     1      86.259  53.910  45.220  1.00  0.00    -0.484 OA
ATOM      8  C   UNL     1      84.940  54.515  47.070  1.00  0.00     0.093 A 
ATOM      9  C   UNL     1      84.140  55.434  47.742  1.00  0.00     0.123 A 
ATOM     10  C   UNL     1      83.888  56.695  47.207  1.00  0.00     0.093 A 
ATOM     11  C   UNL     1      84.455  57.046  45.985  1.00  0.00     0.133 A 
ENDROOT
BRANCH   1  12
ATOM     12  C   UNL     1      87.251  53.014  43.224  1.00  0.00    -0.003 A 
ATOM     13  C   UNL     1      88.745  52.250  41.451  1.00  0.00     0.161 A 
ATOM     14  C   UNL     1      87.885  53.217  41.986  1.00  0.00     0.058 A 
ATOM     15  C   UNL     1      88.982  51.065  42.169  1.00  0.00     0.169 A 
ATOM     16  C   UNL     1      88.360  50.851  43.403  1.00  0.00     0.021 A 
ATOM     17  O   UNL     1      89.823  50.148  41.595  1.00  0.00    -0.479 OA
ATOM     18  C   UNL     1      87.501  51.825  43.925  1.00  0.00     0.019 A 
ATOM     19  C   UNL     1      88.598  49.619  44.140  1.00  0.00     0.012 C 
ATOM     20  C   UNL     1      90.215  48.979  42.337  1.00  0.00     0.122 C 
ATOM     21  C   UNL     1      89.473  48.747  43.633  1.00  0.00     0.021 C 
ATOM     22  C   UNL     1      91.714  49.119  42.626  1.00  0.00     0.061 C 
ATOM     23  C   UNL     1      89.979  47.785  41.403  1.00  0.00     0.061 C 
BRANCH  13  24
ATOM     24  O   UNL     1      89.400  52.369  40.251  1.00  0.00    -0.493 OA
ATOM     25  C   UNL     1      90.390  53.380  40.134  1.00  0.00     0.278 C 
ENDBRANCH  13  24
ENDBRANCH   1  12
BRANCH  11  26
ATOM     26  O   UNL     1      84.188  58.304  45.516  1.00  0.00    -0.507 OA
ATOM     27  H   UNL     1      84.902  58.907  45.823  1.00  0.00     0.293 HD
ENDBRANCH  11  26
BRANCH   9  28
ATOM     28  O   UNL     1      83.574  55.133  48.947  1.00  0.00    -0.508 OA
ATOM     29  H   UNL     1      82.614  55.032  48.833  1.00  0.00     0.293 HD
ENDBRANCH   9  28
TORSDOF 4
ENDMDL
MODEL 2
REMARK VINA RESULT:    -9.048      3.228      8.395
REMARK INTER + INTRA:         -11.070
REMARK INTER:                 -10.623
REMARK INTRA:                  -0.447
REMARK UNBOUND:                -0.435
REMARK SMILES COc1cc(C2CC(=O)c3c(O)cc(O)cc3O2)cc2c1OC(C)(C)C=C2
REMARK SMILES IDX 6 1 7 2 8 3 9 4 10 5 17 6 18 7 16 8 14 9 13 10 11 11 5 12
REMARK SMILES IDX 3 13 4 14 21 15 20 16 22 17 19 18 27 19 23 20 26 21 24 22
REMARK SMILES IDX 25 23 2 24 1 25 12 26 15 28
REMARK H PARENT 12 27 15 29
ROOT
ATOM      1  C   UNL     1      87.689  49.006  43.131  1.00  0.00     0.211 C 
ATOM      2  C   UNL     1      88.841  48.609  42.218  1.00  0.00     0.131 C 
ATOM      3  C   UNL     1      89.016  47.122  42.311  1.00  0.00     0.174 C 
ATOM      4  O   UNL     1      90.103  46.566  42.168  1.00  0.00    -0.294 OA
ATOM      5  C   UNL     1      87.797  46.318  42.519  1.00  0.00     0.102 A 
ATOM      6  C   UNL     1      86.584  46.986  42.700  1.00  0.00     0.138 A 
ATOM      7  O   UNL     1      86.471  48.352  42.736  1.00  0.00    -0.484 OA
ATOM      8  C   UNL     1      85.398  46.263  42.829  1.00  0.00     0.093 A 
ATOM      9  C   UNL     1      85.444  44.871  42.809  1.00  0.00     0.123 A 
ATOM     10  C   UNL     1      86.651  44.194  42.653  1.00  0.00     0.093 A 
ATOM     11  C   UNL     1      87.829  44.920  42.503  1.00  0.00     0.133 A 
ENDROOT
BRANCH   1  12
ATOM     12  C   UNL     1      87.469  50.508  43.093  1.00  0.00    -0.003 A 
ATOM     13  C   UNL     1      88.064  52.696  42.191  1.00  0.00     0.161 A 
ATOM     14  C   UNL     1      88.265  51.313  42.259  1.00  0.00     0.058 A 
ATOM     15  C   UNL     1      87.046  53.285  42.963  1.00  0.00     0.169 A 
ATOM     16  C   UNL     1      86.246  52.495  43.795  1.00  0.00     0.021 A 
ATOM     17  O   UNL     1      86.900  54.644  42.867  1.00  0.00    -0.479 OA
ATOM     18  C   UNL     1      86.459  51.113  43.854  1.00  0.00     0.019 A 
ATOM     19  C   UNL     1      85.201  53.107  44.601  1.00  0.00     0.012 C 
ATOM     20  C   UNL     1      85.792  55.288  43.522  1.00  0.00     0.122 C 
ATOM     21  C   UNL     1      84.993  54.418  44.464  1.00  0.00     0.021 C 
ATOM     22  C   UNL     1      84.874  55.823  42.417  1.00  0.00     0.061 C 
ATOM     23  C   UNL     1      86.391  56.462  44.308  1.00  0.00     0.061 C 
BRANCH  13  24
ATOM     24  O   UNL     1      88.795  53.553  41.406  1.00  0.00    -0.493 OA
ATOM     25  C   UNL     1      89.813  52.995  40.588  1.00  0.00     0.278 C 
ENDBRANCH  13  24
ENDBRANCH   1  12
BRANCH  11  26
ATOM     26  O   UNL     1      88.983  44.202  42.335  1.00  0.00    -0.507 OA
ATOM     27  H   UNL     1      88.752  43.246  42.314  1.00  0.00     0.293 HD
ENDBRANCH  11  26
BRANCH   9  28
ATOM     28  O   UNL     1      84.311  44.123  42.943  1.00  0.00    -0.508 OA
ATOM     29  H   UNL     1      83.534  44.700  42.851  1.00  0.00     0.293 HD
ENDBRANCH   9  28
TORSDOF 4
ENDMDL
MODEL 3
REMARK VINA RESULT:    -8.991      2.741      8.060
REMARK INTER + INTRA:         -11.003
REMARK INTER:                 -10.566
REMARK INTRA:                  -0.437
REMARK UNBOUND:                -0.435
REMARK SMILES COc1cc(C2CC(=O)c3c(O)cc(O)cc3O2)cc2c1OC(C)(C)C=C2
REMARK SMILES IDX 6 1 7 2 8 3 9 4 10 5 17 6 18 7 16 8 14 9 13 10 11 11 5 12
REMARK SMILES IDX 3 13 4 14 21 15 20 16 22 17 19 18 27 19 23 20 26 21 24 22
REMARK SMILES IDX 25 23 2 24 1 25 12 26 15 28
REMARK H PARENT 12 27 15 29
ROOT
ATOM      1  C   UNL     1      86.708  51.240  43.401  1.00  0.00     0.211 C 
ATOM      2  C   UNL     1      87.086  51.183  41.928  1.00  0.00     0.131 C 
ATOM      3  C   UNL     1      87.625  49.812  41.638  1.00  0.00     0.174 C 
ATOM      4  O   UNL     1      88.475  49.595  40.778  1.00  0.00    -0.294 OA
ATOM      5  C   UNL     1      87.038  48.691  42.397  1.00  0.00     0.102 A 
ATOM      6  C   UNL     1      86.092  48.980  43.383  1.00  0.00     0.138 A 
ATOM      7  O   UNL     1      85.709  50.253  43.714  1.00  0.00    -0.484 OA
ATOM      8  C   UNL     1      85.461  47.943  44.073  1.00  0.00     0.093 A 
ATOM      9  C   UNL     1      85.811  46.626  43.791  1.00  0.00     0.123 A 
ATOM     10  C   UNL     1      86.770  46.327  42.826  1.00  0.00     0.093 A 
ATOM     11  C   UNL     1      87.381  47.363  42.124  1.00  0.00     0.133 A 
ENDROOT
BRANCH   1  12
ATOM     12  C   UNL     1      86.167  52.611  43.762  1.00  0.00    -0.003 A 
ATOM     13  C   UNL     1      84.696  54.491  43.252  1.00  0.00     0.161 A 
ATOM     14  C   UNL     1      85.225  53.236  42.926  1.00  0.00     0.058 A 
ATOM     15  C   UNL     1      85.108  55.128  44.436  1.00  0.00     0.169 A 
ATOM     16  C   UNL     1      86.043  54.516  45.277  1.00  0.00     0.021 A 
ATOM     17  O   UNL     1      84.567  56.358  44.701  1.00  0.00    -0.479 OA
ATOM     18  C   UNL     1      86.566  53.262  44.939  1.00  0.00     0.019 A 
ATOM     19  C   UNL     1      86.477  55.181  46.496  1.00  0.00     0.012 C 
ATOM     20  C   UNL     1      84.841  57.000  45.960  1.00  0.00     0.122 C 
ATOM     21  C   UNL     1      85.905  56.346  46.810  1.00  0.00     0.021 C 
ATOM     22  C   UNL     1      83.520  57.038  46.735  1.00  0.00     0.061 C 
ATOM     23  C   UNL     1      85.280  58.430  45.619  1.00  0.00     0.061 C 
BRANCH  13  24
ATOM     24  O   UNL     1      83.775  55.169  42.493  1.00  0.00    -0.493 OA
ATOM     25  C   UNL     1      83.967  55.196  41.086  1.00  0.00     0.278 C 
ENDBRANCH  13  24
ENDBRANCH   1  12
BRANCH  11  26
ATOM     26  O   UNL     1      88.303  47.010  41.176  1.00  0.00    -0.507 OA
ATOM     27  H   UNL     1      88.418  46.033  41.204  1.00  0.00     0.293 HD
ENDBRANCH  11  26
BRANCH   9  28
ATOM     28  O   UNL     1      85.229  45.582  44.449  1.00  0.00    -0.508 OA
ATOM     29  H   UNL     1      84.373  45.869  44.810  1.00  0.00     0.293 HD
ENDBRANCH   9  28
TORSDOF 4
ENDMDL
MODEL 4
REMARK VINA RESULT:    -8.960      1.772      2.825
REMARK INTER + INTRA:         -10.966
REMARK INTER:                 -10.502
REMARK INTRA:                  -0.464
REMARK UNBOUND:                -0.435
REMARK SMILES COc1cc(C2CC(=O)c3c(O)cc(O)cc3O2)cc2c1OC(C)(C)C=C2
REMARK SMILES IDX 6 1 7 2 8 3 9 4 10 5 17 6 18 7 16 8 14 9 13 10 11 11 5 12
REMARK SMILES IDX 3 13 4 14 21 15 20 16 22 17 19 18 27 19 23 20 26 21 24 22
REMARK SMILES IDX 25 23 2 24 1 25 12 26 15 28
REMARK H PARENT 12 27 15 29
ROOT
ATOM      1  C   UNL     1      85.936  52.717  43.856  1.00  0.00     0.211 C 
ATOM      2  C   UNL     1      86.510  53.870  43.044  1.00  0.00     0.131 C 
ATOM      3  C   UNL     1      85.680  55.090  43.317  1.00  0.00     0.174 C 
ATOM      4  O   UNL     1      85.509  55.982  42.490  1.00  0.00    -0.294 OA
ATOM      5  C   UNL     1      85.113  55.221  44.673  1.00  0.00     0.102 A 
ATOM      6  C   UNL     1      85.310  54.176  45.579  1.00  0.00     0.138 A 
ATOM      7  O   UNL     1      85.965  53.015  45.263  1.00  0.00    -0.484 OA
ATOM      8  C   UNL     1      84.851  54.292  46.892  1.00  0.00     0.093 A 
ATOM      9  C   UNL     1      84.169  55.443  47.276  1.00  0.00     0.123 A 
ATOM     10  C   UNL     1      83.947  56.481  46.375  1.00  0.00     0.093 A 
ATOM     11  C   UNL     1      84.425  56.372  45.072  1.00  0.00     0.133 A 
ENDROOT
BRANCH   1  12
ATOM     12  C   UNL     1      86.725  51.444  43.612  1.00  0.00    -0.003 A 
ATOM     13  C   UNL     1      86.823  49.006  43.581  1.00  0.00     0.161 A 
ATOM     14  C   UNL     1      86.121  50.192  43.822  1.00  0.00     0.058 A 
ATOM     15  C   UNL     1      88.149  49.070  43.113  1.00  0.00     0.169 A 
ATOM     16  C   UNL     1      88.761  50.309  42.898  1.00  0.00     0.021 A 
ATOM     17  O   UNL     1      88.793  47.880  42.904  1.00  0.00    -0.479 OA
ATOM     18  C   UNL     1      88.048  51.488  43.145  1.00  0.00     0.019 A 
ATOM     19  C   UNL     1      90.135  50.375  42.425  1.00  0.00     0.012 C 
ATOM     20  C   UNL     1      90.098  47.874  42.298  1.00  0.00     0.122 C 
ATOM     21  C   UNL     1      90.754  49.227  42.143  1.00  0.00     0.021 C 
ATOM     22  C   UNL     1      89.944  47.221  40.919  1.00  0.00     0.061 C 
ATOM     23  C   UNL     1      90.976  46.989  43.192  1.00  0.00     0.061 C 
BRANCH  13  24
ATOM     24  O   UNL     1      86.310  47.746  43.761  1.00  0.00    -0.493 OA
ATOM     25  C   UNL     1      84.929  47.549  43.495  1.00  0.00     0.278 C 
ENDBRANCH  13  24
ENDBRANCH   1  12
BRANCH  11  26
ATOM     26  O   UNL     1      84.193  57.429  44.235  1.00  0.00    -0.507 OA
ATOM     27  H   UNL     1      83.284  57.342  43.869  1.00  0.00     0.293 HD
ENDBRANCH  11  26
BRANCH   9  28
ATOM     28  O   UNL     1      83.693  55.595  48.546  1.00  0.00    -0.508 OA
ATOM     29  H   UNL     1      83.220  56.441  48.611  1.00  0.00     0.293 HD
ENDBRANCH   9  28
TORSDOF 4
ENDMDL
MODEL 5
REMARK VINA RESULT:    -8.906      1.947      3.767
REMARK INTER + INTRA:         -10.903
REMARK INTER:                 -10.547
REMARK INTRA:                  -0.356
REMARK UNBOUND:                -0.435
REMARK SMILES COc1cc(C2CC(=O)c3c(O)cc(O)cc3O2)cc2c1OC(C)(C)C=C2
REMARK SMILES IDX 6 1 7 2 8 3 9 4 10 5 17 6 18 7 16 8 14 9 13 10 11 11 5 12
REMARK SMILES IDX 3 13 4 14 21 15 20 16 22 17 19 18 27 19 23 20 26 21 24 22
REMARK SMILES IDX 25 23 2 24 1 25 12 26 15 28
REMARK H PARENT 12 27 15 29
ROOT
ATOM      1  C   UNL     1      86.281  52.946  45.293  1.00  0.00     0.211 C 
ATOM      2  C   UNL     1      84.903  52.770  45.916  1.00  0.00     0.131 C 
ATOM      3  C   UNL     1      84.461  54.101  46.450  1.00  0.00     0.174 C 
ATOM      4  O   UNL     1      83.724  54.219  47.427  1.00  0.00    -0.294 OA
ATOM      5  C   UNL     1      84.896  55.297  45.705  1.00  0.00     0.102 A 
ATOM      6  C   UNL     1      85.751  55.125  44.614  1.00  0.00     0.138 A 
ATOM      7  O   UNL     1      86.242  53.907  44.223  1.00  0.00    -0.484 OA
ATOM      8  C   UNL     1      86.128  56.223  43.840  1.00  0.00     0.093 A 
ATOM      9  C   UNL     1      85.671  57.491  44.188  1.00  0.00     0.123 A 
ATOM     10  C   UNL     1      84.837  57.677  45.287  1.00  0.00     0.093 A 
ATOM     11  C   UNL     1      84.445  56.577  46.044  1.00  0.00     0.133 A 
ENDROOT
BRANCH   1  12
ATOM     12  C   UNL     1      86.793  51.627  44.745  1.00  0.00    -0.003 A 
ATOM     13  C   UNL     1      86.530  49.214  44.488  1.00  0.00     0.161 A 
ATOM     14  C   UNL     1      86.088  50.439  45.003  1.00  0.00     0.058 A 
ATOM     15  C   UNL     1      87.691  49.178  43.695  1.00  0.00     0.169 A 
ATOM     16  C   UNL     1      88.401  50.353  43.429  1.00  0.00     0.021 A 
ATOM     17  O   UNL     1      88.086  47.952  43.226  1.00  0.00    -0.479 OA
ATOM     18  C   UNL     1      87.949  51.570  43.951  1.00  0.00     0.019 A 
ATOM     19  C   UNL     1      89.608  50.312  42.617  1.00  0.00     0.012 C 
ATOM     20  C   UNL     1      89.183  47.864  42.298  1.00  0.00     0.122 C 
ATOM     21  C   UNL     1      89.965  49.140  42.088  1.00  0.00     0.021 C 
ATOM     22  C   UNL     1      88.596  47.399  40.961  1.00  0.00     0.061 C 
ATOM     23  C   UNL     1      90.120  46.785  42.853  1.00  0.00     0.061 C 
BRANCH  13  24
ATOM     24  O   UNL     1      85.904  48.011  44.693  1.00  0.00    -0.493 OA
ATOM     25  C   UNL     1      84.882  47.633  43.782  1.00  0.00     0.278 C 
ENDBRANCH  13  24
ENDBRANCH   1  12
BRANCH  11  26
ATOM     26  O   UNL     1      83.611  56.817  47.103  1.00  0.00    -0.507 OA
ATOM     27  H   UNL     1      83.925  56.288  47.871  1.00  0.00     0.293 HD
ENDBRANCH  11  26
BRANCH   9  28
ATOM     28  O   UNL     1      86.024  58.594  43.467  1.00  0.00    -0.508 OA
ATOM     29  H   UNL     1      86.934  58.486  43.142  1.00  0.00     0.293 HD
ENDBRANCH   9  28
TORSDOF 4
ENDMDL
MODEL 6
REMARK VINA RESULT:    -8.830      5.601      6.964
REMARK INTER + INTRA:         -10.813
REMARK INTER:                 -10.335
REMARK INTRA:                  -0.479
REMARK UNBOUND:                -0.435
REMARK SMILES COc1cc(C2CC(=O)c3c(O)cc(O)cc3O2)cc2c1OC(C)(C)C=C2
REMARK SMILES IDX 6 1 7 2 8 3 9 4 10 5 17 6 18 7 16 8 14 9 13 10 11 11 5 12
REMARK SMILES IDX 3 13 4 14 21 15 20 16 22 17 19 18 27 19 23 20 26 21 24 22
REMARK SMILES IDX 25 23 2 24 1 25 12 26 15 28
REMARK H PARENT 12 27 15 29
ROOT
ATOM      1  C   UNL     1      83.746  48.341  43.897  1.00  0.00     0.211 C 
ATOM      2  C   UNL     1      83.327  46.932  43.504  1.00  0.00     0.131 C 
ATOM      3  C   UNL     1      81.877  46.764  43.852  1.00  0.00     0.174 C 
ATOM      4  O   UNL     1      81.386  45.684  44.173  1.00  0.00    -0.294 OA
ATOM      5  C   UNL     1      81.019  47.957  43.730  1.00  0.00     0.102 A 
ATOM      6  C   UNL     1      81.617  49.172  43.385  1.00  0.00     0.138 A 
ATOM      7  O   UNL     1      82.965  49.324  43.195  1.00  0.00    -0.484 OA
ATOM      8  C   UNL     1      80.831  50.309  43.190  1.00  0.00     0.093 A 
ATOM      9  C   UNL     1      79.454  50.225  43.376  1.00  0.00     0.123 A 
ATOM     10  C   UNL     1      78.850  49.024  43.742  1.00  0.00     0.093 A 
ATOM     11  C   UNL     1      79.634  47.887  43.915  1.00  0.00     0.133 A 
ENDROOT
BRANCH   1  12
ATOM     12  C   UNL     1      85.213  48.570  43.582  1.00  0.00    -0.003 A 
ATOM     13  C   UNL     1      87.185  50.005  43.686  1.00  0.00     0.161 A 
ATOM     14  C   UNL     1      85.828  49.781  43.946  1.00  0.00     0.058 A 
ATOM     15  C   UNL     1      87.943  48.999  43.060  1.00  0.00     0.169 A 
ATOM     16  C   UNL     1      87.345  47.789  42.695  1.00  0.00     0.021 A 
ATOM     17  O   UNL     1      89.264  49.274  42.820  1.00  0.00    -0.479 OA
ATOM     18  C   UNL     1      85.986  47.579  42.959  1.00  0.00     0.019 A 
ATOM     19  C   UNL     1      88.127  46.753  42.038  1.00  0.00     0.012 C 
ATOM     20  C   UNL     1      90.125  48.240  42.309  1.00  0.00     0.122 C 
ATOM     21  C   UNL     1      89.432  46.972  41.864  1.00  0.00     0.021 C 
ATOM     22  C   UNL     1      91.128  47.910  43.420  1.00  0.00     0.061 C 
ATOM     23  C   UNL     1      90.864  48.856  41.114  1.00  0.00     0.061 C 
BRANCH  13  24
ATOM     24  O   UNL     1      87.861  51.156  44.006  1.00  0.00    -0.493 OA
ATOM     25  C   UNL     1      87.508  51.817  45.212  1.00  0.00     0.278 C 
ENDBRANCH  13  24
ENDBRANCH   1  12
BRANCH  11  26
ATOM     26  O   UNL     1      78.985  46.732  44.258  1.00  0.00    -0.507 OA
ATOM     27  H   UNL     1      78.018  46.877  44.154  1.00  0.00     0.293 HD
ENDBRANCH  11  26
BRANCH   9  28
ATOM     28  O   UNL     1      78.648  51.313  43.207  1.00  0.00    -0.508 OA
ATOM     29  H   UNL     1      77.903  51.073  42.631  1.00  0.00     0.293 HD
ENDBRANCH   9  28
TORSDOF 4
ENDMDL
MODEL 7
REMARK VINA RESULT:    -8.828      5.132      8.224
REMARK INTER + INTRA:         -10.811
REMARK INTER:                 -10.364
REMARK INTRA:                  -0.447
REMARK UNBOUND:                -0.435
REMARK SMILES COc1cc(C2CC(=O)c3c(O)cc(O)cc3O2)cc2c1OC(C)(C)C=C2
REMARK SMILES IDX 6 1 7 2 8 3 9 4 10 5 17 6 18 7 16 8 14 9 13 10 11 11 5 12
REMARK SMILES IDX 3 13 4 14 21 15 20 16 22 17 19 18 27 19 23 20 26 21 24 22
REMARK SMILES IDX 25 23 2 24 1 25 12 26 15 28
REMARK H PARENT 12 27 15 29
ROOT
ATOM      1  C   UNL     1      83.781  50.206  44.233  1.00  0.00     0.211 C 
ATOM      2  C   UNL     1      84.678  49.395  43.308  1.00  0.00     0.131 C 
ATOM      3  C   UNL     1      84.298  47.950  43.441  1.00  0.00     0.174 C 
ATOM      4  O   UNL     1      85.099  47.030  43.292  1.00  0.00    -0.294 OA
ATOM      5  C   UNL     1      82.876  47.655  43.699  1.00  0.00     0.102 A 
ATOM      6  C   UNL     1      81.999  48.726  43.885  1.00  0.00     0.138 A 
ATOM      7  O   UNL     1      82.396  50.037  43.884  1.00  0.00    -0.484 OA
ATOM      8  C   UNL     1      80.634  48.491  44.061  1.00  0.00     0.093 A 
ATOM      9  C   UNL     1      80.165  47.181  44.081  1.00  0.00     0.123 A 
ATOM     10  C   UNL     1      81.034  46.104  43.919  1.00  0.00     0.093 A 
ATOM     11  C   UNL     1      82.391  46.342  43.723  1.00  0.00     0.133 A 
ENDROOT
BRANCH   1  12
ATOM     12  C   UNL     1      84.126  51.682  44.156  1.00  0.00    -0.003 A 
ATOM     13  C   UNL     1      83.921  53.831  43.018  1.00  0.00     0.161 A 
ATOM     14  C   UNL     1      83.634  52.463  43.096  1.00  0.00     0.058 A 
ATOM     15  C   UNL     1      84.706  54.430  44.019  1.00  0.00     0.169 A 
ATOM     16  C   UNL     1      85.200  53.665  45.080  1.00  0.00     0.021 A 
ATOM     17  O   UNL     1      84.966  55.769  43.888  1.00  0.00    -0.479 OA
ATOM     18  C   UNL     1      84.907  52.297  45.146  1.00  0.00     0.019 A 
ATOM     19  C   UNL     1      86.022  54.283  46.109  1.00  0.00     0.012 C 
ATOM     20  C   UNL     1      85.645  56.469  44.946  1.00  0.00     0.122 C 
ATOM     21  C   UNL     1      86.222  55.601  46.040  1.00  0.00     0.021 C 
ATOM     22  C   UNL     1      84.632  57.447  45.552  1.00  0.00     0.061 C 
ATOM     23  C   UNL     1      86.780  57.253  44.275  1.00  0.00     0.061 C 
BRANCH  13  24
ATOM     24  O   UNL     1      83.482  54.663  42.019  1.00  0.00    -0.493 OA
ATOM     25  C   UNL     1      82.511  54.158  41.115  1.00  0.00     0.278 C 
ENDBRANCH  13  24
ENDBRANCH   1  12
BRANCH  11  26
ATOM     26  O   UNL     1      83.195  45.248  43.552  1.00  0.00    -0.507 OA
ATOM     27  H   UNL     1      84.046  45.413  44.018  1.00  0.00     0.293 HD
ENDBRANCH  11  26
BRANCH   9  28
ATOM     28  O   UNL     1      78.841  46.904  44.261  1.00  0.00    -0.508 OA
ATOM     29  H   UNL     1      78.311  47.639  43.909  1.00  0.00     0.293 HD
ENDBRANCH   9  28
TORSDOF 4
ENDMDL
MODEL 8
REMARK VINA RESULT:    -8.721      2.807      8.416
REMARK INTER + INTRA:         -10.685
REMARK INTER:                 -10.232
REMARK INTRA:                  -0.452
REMARK UNBOUND:                -0.435
REMARK SMILES COc1cc(C2CC(=O)c3c(O)cc(O)cc3O2)cc2c1OC(C)(C)C=C2
REMARK SMILES IDX 6 1 7 2 8 3 9 4 10 5 17 6 18 7 16 8 14 9 13 10 11 11 5 12
REMARK SMILES IDX 3 13 4 14 21 15 20 16 22 17 19 18 27 19 23 20 26 21 24 22
REMARK SMILES IDX 25 23 2 24 1 25 12 26 15 28
REMARK H PARENT 12 27 15 29
ROOT
ATOM      1  C   UNL     1      85.701  50.517  43.168  1.00  0.00     0.211 C 
ATOM      2  C   UNL     1      85.054  49.538  44.137  1.00  0.00     0.131 C 
ATOM      3  C   UNL     1      85.337  48.147  43.650  1.00  0.00     0.174 C 
ATOM      4  O   UNL     1      84.573  47.203  43.839  1.00  0.00    -0.294 OA
ATOM      5  C   UNL     1      86.630  47.927  42.975  1.00  0.00     0.102 A 
ATOM      6  C   UNL     1      87.462  49.027  42.758  1.00  0.00     0.138 A 
ATOM      7  O   UNL     1      87.123  50.311  43.100  1.00  0.00    -0.484 OA
ATOM      8  C   UNL     1      88.723  48.851  42.188  1.00  0.00     0.093 A 
ATOM      9  C   UNL     1      89.126  47.573  41.808  1.00  0.00     0.123 A 
ATOM     10  C   UNL     1      88.296  46.472  41.999  1.00  0.00     0.093 A 
ATOM     11  C   UNL     1      87.047  46.648  42.588  1.00  0.00     0.133 A 
ENDROOT
BRANCH   1  12
ATOM     12  C   UNL     1      85.437  51.949  43.597  1.00  0.00    -0.003 A 
ATOM     13  C   UNL     1      84.442  54.130  43.141  1.00  0.00     0.161 A 
ATOM     14  C   UNL     1      84.716  52.813  42.755  1.00  0.00     0.058 A 
ATOM     15  C   UNL     1      84.888  54.590  44.394  1.00  0.00     0.169 A 
ATOM     16  C   UNL     1      85.604  53.740  45.242  1.00  0.00     0.021 A 
ATOM     17  O   UNL     1      84.602  55.890  44.717  1.00  0.00    -0.479 OA
ATOM     18  C   UNL     1      85.874  52.425  44.843  1.00  0.00     0.019 A 
ATOM     19  C   UNL     1      86.075  54.219  46.532  1.00  0.00     0.012 C 
ATOM     20  C   UNL     1      84.908  56.379  46.035  1.00  0.00     0.122 C 
ATOM     21  C   UNL     1      85.741  55.459  46.898  1.00  0.00     0.021 C 
ATOM     22  C   UNL     1      83.569  56.656  46.728  1.00  0.00     0.061 C 
ATOM     23  C   UNL     1      85.665  57.698  45.832  1.00  0.00     0.061 C 
BRANCH  13  24
ATOM     24  O   UNL     1      83.747  55.037  42.381  1.00  0.00    -0.493 OA
ATOM     25  C   UNL     1      84.219  55.300  41.068  1.00  0.00     0.278 C 
ENDBRANCH  13  24
ENDBRANCH   1  12
BRANCH  11  26
ATOM     26  O   UNL     1      86.281  45.528  42.767  1.00  0.00    -0.507 OA
ATOM     27  H   UNL     1      86.852  44.738  42.635  1.00  0.00     0.293 HD
ENDBRANCH  11  26
BRANCH   9  28
ATOM     28  O   UNL     1      90.346  47.356  41.237  1.00  0.00    -0.508 OA
ATOM     29  H   UNL     1      90.816  48.202  41.156  1.00  0.00     0.293 HD
ENDBRANCH   9  28
TORSDOF 4
ENDMDL
MODEL 9
REMARK VINA RESULT:    -8.716      3.889      5.653
REMARK INTER + INTRA:         -10.679
REMARK INTER:                 -10.245
REMARK INTRA:                  -0.435
REMARK UNBOUND:                -0.435
REMARK SMILES COc1cc(C2CC(=O)c3c(O)cc(O)cc3O2)cc2c1OC(C)(C)C=C2
REMARK SMILES IDX 6 1 7 2 8 3 9 4 10 5 17 6 18 7 16 8 14 9 13 10 11 11 5 12
REMARK SMILES IDX 3 13 4 14 21 15 20 16 22 17 19 18 27 19 23 20 26 21 24 22
REMARK SMILES IDX 25 23 2 24 1 25 12 26 15 28
REMARK H PARENT 12 27 15 29
ROOT
ATOM      1  C   UNL     1      86.114  51.013  42.837  1.00  0.00     0.211 C 
ATOM      2  C   UNL     1      86.158  51.716  44.186  1.00  0.00     0.131 C 
ATOM      3  C   UNL     1      86.133  53.196  43.941  1.00  0.00     0.174 C 
ATOM      4  O   UNL     1      86.675  54.008  44.687  1.00  0.00    -0.294 OA
ATOM      5  C   UNL     1      85.358  53.666  42.776  1.00  0.00     0.102 A 
ATOM      6  C   UNL     1      84.776  52.713  41.938  1.00  0.00     0.138 A 
ATOM      7  O   UNL     1      84.920  51.362  42.114  1.00  0.00    -0.484 OA
ATOM      8  C   UNL     1      83.976  53.117  40.867  1.00  0.00     0.093 A 
ATOM      9  C   UNL     1      83.797  54.477  40.627  1.00  0.00     0.123 A 
ATOM     10  C   UNL     1      84.391  55.436  41.443  1.00  0.00     0.093 A 
ATOM     11  C   UNL     1      85.170  55.029  42.523  1.00  0.00     0.133 A 
ENDROOT
BRANCH   1  12
ATOM     12  C   UNL     1      86.151  49.506  43.016  1.00  0.00    -0.003 A 
ATOM     13  C   UNL     1      85.067  47.452  43.765  1.00  0.00     0.161 A 
ATOM     14  C   UNL     1      85.063  48.843  43.610  1.00  0.00     0.058 A 
ATOM     15  C   UNL     1      86.172  46.710  43.311  1.00  0.00     0.169 A 
ATOM     16  C   UNL     1      87.260  47.357  42.716  1.00  0.00     0.021 A 
ATOM     17  O   UNL     1      86.129  45.353  43.496  1.00  0.00    -0.479 OA
ATOM     18  C   UNL     1      87.244  48.749  42.570  1.00  0.00     0.019 A 
ATOM     19  C   UNL     1      88.407  46.589  42.257  1.00  0.00     0.012 C 
ATOM     20  C   UNL     1      87.162  44.524  42.933  1.00  0.00     0.122 C 
ATOM     21  C   UNL     1      88.351  45.260  42.360  1.00  0.00     0.021 C 
ATOM     22  C   UNL     1      86.505  43.682  41.834  1.00  0.00     0.061 C 
ATOM     23  C   UNL     1      87.636  43.609  44.069  1.00  0.00     0.061 C 
BRANCH  13  24
ATOM     24  O   UNL     1      84.049  46.728  44.333  1.00  0.00    -0.493 OA
ATOM     25  C   UNL     1      82.827  46.628  43.616  1.00  0.00     0.278 C 
ENDBRANCH  13  24
ENDBRANCH   1  12
BRANCH  11  26
ATOM     26  O   UNL     1      85.716  56.014  43.300  1.00  0.00    -0.507 OA
ATOM     27  H   UNL     1      84.987  56.467  43.783  1.00  0.00     0.293 HD
ENDBRANCH  11  26
BRANCH   9  28
ATOM     28  O   UNL     1      83.033  54.917  39.586  1.00  0.00    -0.508 OA
ATOM     29  H   UNL     1      82.103  54.955  39.865  1.00  0.00     0.293 HD
ENDBRANCH   9  28
TORSDOF 4
ENDMDL
