MODEL 1
REMARK VINA RESULT:    -9.560      0.000      0.000
REMARK INTER + INTRA:         -11.018
REMARK INTER:                 -10.637
REMARK INTRA:                  -0.381
REMARK UNBOUND:                -0.341
REMARK SMILES CC1(C)C=Cc2cc([C@@H]3CC(=O)c4c(O)cc(O)cc4O3)ccc2O1
REMARK SMILES IDX 17 1 19 2 20 3 21 4 9 5 10 6 11 7 12 8 13 9 14 10 16 11
REMARK SMILES IDX 18 12 15 14 8 16 22 17 7 18 23 19 6 20 24 21 5 22 25 23 4 24
REMARK SMILES IDX 2 25 1 26 3 27
REMARK H PARENT 18 13 15 15
ROOT
ATOM      1  C   UNL     1      85.898  57.869  44.246  1.00  0.00     0.123 A 
ATOM      2  C   UNL     1      86.409  56.615  43.916  1.00  0.00     0.093 A 
ATOM      3  C   UNL     1      85.992  55.496  44.639  1.00  0.00     0.138 A 
ATOM      4  O   UNL     1      86.538  54.295  44.268  1.00  0.00    -0.484 OA
ATOM      5  C   UNL     1      86.511  53.319  45.324  1.00  0.00     0.211 C 
ATOM      6  C   UNL     1      85.092  53.102  45.830  1.00  0.00     0.131 C 
ATOM      7  C   UNL     1      84.576  54.415  46.345  1.00  0.00     0.174 C 
ATOM      8  O   UNL     1      83.756  54.501  47.257  1.00  0.00    -0.294 OA
ATOM      9  C   UNL     1      85.046  55.632  45.658  1.00  0.00     0.102 A 
ATOM     10  C   UNL     1      84.543  56.896  45.980  1.00  0.00     0.133 A 
ATOM     11  C   UNL     1      84.973  58.018  45.276  1.00  0.00     0.093 A 
ENDROOT
BRANCH   1  12
ATOM     12  O   UNL     1      86.286  58.990  43.575  1.00  0.00    -0.508 OA
ATOM     13  H   UNL     1      85.614  59.212  42.908  1.00  0.00     0.293 HD
ENDBRANCH   1  12
BRANCH  10  14
ATOM     14  O   UNL     1      83.619  57.101  46.968  1.00  0.00    -0.507 OA
ATOM     15  H   UNL     1      83.923  57.854  47.524  1.00  0.00     0.293 HD
ENDBRANCH  10  14
BRANCH   5  16
ATOM     16  C   UNL     1      87.095  52.019  44.800  1.00  0.00    -0.006 A 
ATOM     17  C   UNL     1      86.800  50.809  45.442  1.00  0.00     0.011 A 
ATOM     18  C   UNL     1      87.906  51.994  43.652  1.00  0.00     0.019 A 
ATOM     19  C   UNL     1      87.312  49.605  44.953  1.00  0.00     0.047 A 
ATOM     20  C   UNL     1      88.422  50.786  43.161  1.00  0.00     0.017 A 
ATOM     21  C   UNL     1      88.121  49.594  43.817  1.00  0.00     0.127 A 
ATOM     22  C   UNL     1      89.263  50.769  41.976  1.00  0.00     0.012 C 
ATOM     23  O   UNL     1      88.571  48.368  43.418  1.00  0.00    -0.483 OA
ATOM     24  C   UNL     1      89.725  49.588  41.557  1.00  0.00     0.021 C 
ATOM     25  C   UNL     1      89.416  48.279  42.252  1.00  0.00     0.122 C 
ATOM     26  C   UNL     1      88.700  47.343  41.270  1.00  0.00     0.061 C 
ATOM     27  C   UNL     1      90.727  47.633  42.717  1.00  0.00     0.061 C 
ENDBRANCH   5  16
TORSDOF 3
ENDMDL
MODEL 2
REMARK VINA RESULT:    -9.155      1.500      3.043
REMARK INTER + INTRA:         -10.566
REMARK INTER:                 -10.190
REMARK INTRA:                  -0.375
REMARK UNBOUND:                -0.341
REMARK SMILES CC1(C)C=Cc2cc([C@@H]3CC(=O)c4c(O)cc(O)cc4O3)ccc2O1
REMARK SMILES IDX 17 1 19 2 20 3 21 4 9 5 10 6 11 7 12 8 13 9 14 10 16 11
REMARK SMILES IDX 18 12 15 14 8 16 22 17 7 18 23 19 6 20 24 21 5 22 25 23 4 24
REMARK SMILES IDX 2 25 1 26 3 27
REMARK H PARENT 18 13 15 15
ROOT
ATOM      1  C   UNL     1      84.170  55.430  47.699  1.00  0.00     0.123 A 
ATOM      2  C   UNL     1      84.804  54.426  46.970  1.00  0.00     0.093 A 
ATOM      3  C   UNL     1      85.219  54.690  45.664  1.00  0.00     0.138 A 
ATOM      4  O   UNL     1      85.830  53.658  45.000  1.00  0.00    -0.484 OA
ATOM      5  C   UNL     1      85.746  53.786  43.570  1.00  0.00     0.211 C 
ATOM      6  C   UNL     1      86.332  55.112  43.105  1.00  0.00     0.131 C 
ATOM      7  C   UNL     1      85.552  56.218  43.756  1.00  0.00     0.174 C 
ATOM      8  O   UNL     1      85.389  57.319  43.234  1.00  0.00    -0.294 OA
ATOM      9  C   UNL     1      85.030  55.959  45.110  1.00  0.00     0.102 A 
ATOM     10  C   UNL     1      84.391  56.956  45.853  1.00  0.00     0.133 A 
ATOM     11  C   UNL     1      83.955  56.690  47.149  1.00  0.00     0.093 A 
ENDROOT
BRANCH   1  12
ATOM     12  O   UNL     1      83.737  55.213  48.973  1.00  0.00    -0.508 OA
ATOM     13  H   UNL     1      82.960  54.631  48.952  1.00  0.00     0.293 HD
ENDBRANCH   1  12
BRANCH  10  14
ATOM     14  O   UNL     1      84.170  58.217  45.372  1.00  0.00    -0.507 OA
ATOM     15  H   UNL     1      85.004  58.543  44.964  1.00  0.00     0.293 HD
ENDBRANCH  10  14
BRANCH   5  16
ATOM     16  C   UNL     1      86.486  52.623  42.934  1.00  0.00    -0.006 A 
ATOM     17  C   UNL     1      86.430  52.431  41.546  1.00  0.00     0.011 A 
ATOM     18  C   UNL     1      87.264  51.743  43.706  1.00  0.00     0.019 A 
ATOM     19  C   UNL     1      87.127  51.379  40.948  1.00  0.00     0.047 A 
ATOM     20  C   UNL     1      87.963  50.686  43.107  1.00  0.00     0.017 A 
ATOM     21  C   UNL     1      87.891  50.508  41.726  1.00  0.00     0.127 A 
ATOM     22  C   UNL     1      88.762  49.777  43.912  1.00  0.00     0.012 C 
ATOM     23  O   UNL     1      88.535  49.514  41.048  1.00  0.00    -0.483 OA
ATOM     24  C   UNL     1      89.405  48.789  43.284  1.00  0.00     0.021 C 
ATOM     25  C   UNL     1      89.341  48.573  41.788  1.00  0.00     0.122 C 
ATOM     26  C   UNL     1      90.756  48.665  41.204  1.00  0.00     0.061 C 
ATOM     27  C   UNL     1      88.755  47.185  41.503  1.00  0.00     0.061 C 
ENDBRANCH   5  16
TORSDOF 3
ENDMDL
MODEL 3
REMARK VINA RESULT:    -8.923      2.186      2.786
REMARK INTER + INTRA:         -10.307
REMARK INTER:                  -9.954
REMARK INTRA:                  -0.352
REMARK UNBOUND:                -0.341
REMARK SMILES CC1(C)C=Cc2cc([C@@H]3CC(=O)c4c(O)cc(O)cc4O3)ccc2O1
REMARK SMILES IDX 17 1 19 2 20 3 21 4 9 5 10 6 11 7 12 8 13 9 14 10 16 11
REMARK SMILES IDX 18 12 15 14 8 16 22 17 7 18 23 19 6 20 24 21 5 22 25 23 4 24
REMARK SMILES IDX 2 25 1 26 3 27
REMARK H PARENT 18 13 15 15
ROOT
ATOM      1  C   UNL     1      85.496  57.593  44.134  1.00  0.00     0.123 A 
ATOM      2  C   UNL     1      85.687  56.229  43.922  1.00  0.00     0.093 A 
ATOM      3  C   UNL     1      85.234  55.319  44.878  1.00  0.00     0.138 A 
ATOM      4  O   UNL     1      85.459  53.994  44.612  1.00  0.00    -0.484 OA
ATOM      5  C   UNL     1      85.476  53.180  45.798  1.00  0.00     0.211 C 
ATOM      6  C   UNL     1      84.180  53.332  46.582  1.00  0.00     0.131 C 
ATOM      7  C   UNL     1      84.035  54.777  46.965  1.00  0.00     0.174 C 
ATOM      8  O   UNL     1      83.455  55.144  47.984  1.00  0.00    -0.294 OA
ATOM      9  C   UNL     1      84.564  55.774  46.018  1.00  0.00     0.102 A 
ATOM     10  C   UNL     1      84.381  57.146  46.218  1.00  0.00     0.133 A 
ATOM     11  C   UNL     1      84.852  58.058  45.277  1.00  0.00     0.093 A 
ENDROOT
BRANCH   1  12
ATOM     12  O   UNL     1      85.933  58.517  43.233  1.00  0.00    -0.508 OA
ATOM     13  H   UNL     1      86.730  58.180  42.790  1.00  0.00     0.293 HD
ENDBRANCH   1  12
BRANCH  10  14
ATOM     14  O   UNL     1      83.739  57.660  47.311  1.00  0.00    -0.507 OA
ATOM     15  H   UNL     1      84.127  57.250  48.118  1.00  0.00     0.293 HD
ENDBRANCH  10  14
BRANCH   5  16
ATOM     16  C   UNL     1      85.688  51.733  45.392  1.00  0.00    -0.006 A 
ATOM     17  C   UNL     1      86.875  51.074  45.738  1.00  0.00     0.011 A 
ATOM     18  C   UNL     1      84.697  51.017  44.697  1.00  0.00     0.019 A 
ATOM     19  C   UNL     1      87.070  49.736  45.390  1.00  0.00     0.047 A 
ATOM     20  C   UNL     1      84.891  49.674  44.347  1.00  0.00     0.017 A 
ATOM     21  C   UNL     1      86.081  49.038  44.696  1.00  0.00     0.127 A 
ATOM     22  C   UNL     1      83.864  48.942  43.626  1.00  0.00     0.012 C 
ATOM     23  O   UNL     1      86.366  47.735  44.403  1.00  0.00    -0.483 OA
ATOM     24  C   UNL     1      84.107  47.665  43.319  1.00  0.00     0.021 C 
ATOM     25  C   UNL     1      85.391  46.952  43.683  1.00  0.00     0.122 C 
ATOM     26  C   UNL     1      85.064  45.747  44.574  1.00  0.00     0.061 C 
ATOM     27  C   UNL     1      86.084  46.473  42.402  1.00  0.00     0.061 C 
ENDBRANCH   5  16
TORSDOF 3
ENDMDL
MODEL 4
REMARK VINA RESULT:    -8.764      4.511      8.650
REMARK INTER + INTRA:         -10.129
REMARK INTER:                  -9.795
REMARK INTRA:                  -0.334
REMARK UNBOUND:                -0.341
REMARK SMILES CC1(C)C=Cc2cc([C@@H]3CC(=O)c4c(O)cc(O)cc4O3)ccc2O1
REMARK SMILES IDX 17 1 19 2 20 3 21 4 9 5 10 6 11 7 12 8 13 9 14 10 16 11
REMARK SMILES IDX 18 12 15 14 8 16 22 17 7 18 23 19 6 20 24 21 5 22 25 23 4 24
REMARK SMILES IDX 2 25 1 26 3 27
REMARK H PARENT 18 13 15 15
ROOT
ATOM      1  C   UNL     1      80.031  47.237  44.112  1.00  0.00     0.123 A 
ATOM      2  C   UNL     1      80.517  48.542  44.069  1.00  0.00     0.093 A 
ATOM      3  C   UNL     1      81.886  48.755  43.901  1.00  0.00     0.138 A 
ATOM      4  O   UNL     1      82.300  50.061  43.874  1.00  0.00    -0.484 OA
ATOM      5  C   UNL     1      83.683  50.218  44.235  1.00  0.00     0.211 C 
ATOM      6  C   UNL     1      84.579  49.378  43.335  1.00  0.00     0.131 C 
ATOM      7  C   UNL     1      84.178  47.940  43.491  1.00  0.00     0.174 C 
ATOM      8  O   UNL     1      84.968  47.007  43.363  1.00  0.00    -0.294 OA
ATOM      9  C   UNL     1      82.751  47.669  43.743  1.00  0.00     0.102 A 
ATOM     10  C   UNL     1      82.249  46.365  43.789  1.00  0.00     0.133 A 
ATOM     11  C   UNL     1      80.886  46.148  43.979  1.00  0.00     0.093 A 
ENDROOT
BRANCH   1  12
ATOM     12  O   UNL     1      78.703  46.983  44.286  1.00  0.00    -0.508 OA
ATOM     13  H   UNL     1      78.310  46.735  43.433  1.00  0.00     0.293 HD
ENDBRANCH   1  12
BRANCH  10  14
ATOM     14  O   UNL     1      83.039  45.257  43.646  1.00  0.00    -0.507 OA
ATOM     15  H   UNL     1      83.574  45.151  44.465  1.00  0.00     0.293 HD
ENDBRANCH  10  14
BRANCH   5  16
ATOM     16  C   UNL     1      84.049  51.687  44.131  1.00  0.00    -0.006 A 
ATOM     17  C   UNL     1      83.806  52.388  42.942  1.00  0.00     0.011 A 
ATOM     18  C   UNL     1      84.602  52.381  45.222  1.00  0.00     0.019 A 
ATOM     19  C   UNL     1      84.117  53.746  42.845  1.00  0.00     0.047 A 
ATOM     20  C   UNL     1      84.915  53.744  45.125  1.00  0.00     0.017 A 
ATOM     21  C   UNL     1      84.671  54.422  43.932  1.00  0.00     0.127 A 
ATOM     22  C   UNL     1      85.490  54.452  46.256  1.00  0.00     0.012 C 
ATOM     23  O   UNL     1      84.938  55.747  43.738  1.00  0.00    -0.483 OA
ATOM     24  C   UNL     1      85.768  55.750  46.102  1.00  0.00     0.021 C 
ATOM     25  C   UNL     1      85.515  56.509  44.819  1.00  0.00     0.122 C 
ATOM     26  C   UNL     1      84.545  57.664  45.097  1.00  0.00     0.061 C 
ATOM     27  C   UNL     1      86.842  57.067  44.292  1.00  0.00     0.061 C 
ENDBRANCH   5  16
TORSDOF 3
ENDMDL
MODEL 5
REMARK VINA RESULT:    -8.742      1.897      8.654
REMARK INTER + INTRA:         -10.105
REMARK INTER:                  -9.758
REMARK INTRA:                  -0.347
REMARK UNBOUND:                -0.341
REMARK SMILES CC1(C)C=Cc2cc([C@@H]3CC(=O)c4c(O)cc(O)cc4O3)ccc2O1
REMARK SMILES IDX 17 1 19 2 20 3 21 4 9 5 10 6 11 7 12 8 13 9 14 10 16 11
REMARK SMILES IDX 18 12 15 14 8 16 22 17 7 18 23 19 6 20 24 21 5 22 25 23 4 24
REMARK SMILES IDX 2 25 1 26 3 27
REMARK H PARENT 18 13 15 15
ROOT
ATOM      1  C   UNL     1      86.934  46.380  42.390  1.00  0.00     0.123 A 
ATOM      2  C   UNL     1      86.373  47.601  42.756  1.00  0.00     0.093 A 
ATOM      3  C   UNL     1      87.169  48.748  42.750  1.00  0.00     0.138 A 
ATOM      4  O   UNL     1      86.558  49.915  43.127  1.00  0.00    -0.484 OA
ATOM      5  C   UNL     1      87.486  50.901  43.610  1.00  0.00     0.211 C 
ATOM      6  C   UNL     1      88.557  51.197  42.570  1.00  0.00     0.131 C 
ATOM      7  C   UNL     1      89.288  49.918  42.279  1.00  0.00     0.174 C 
ATOM      8  O   UNL     1      90.470  49.885  41.941  1.00  0.00    -0.294 OA
ATOM      9  C   UNL     1      88.504  48.672  42.345  1.00  0.00     0.102 A 
ATOM     10  C   UNL     1      89.055  47.439  41.980  1.00  0.00     0.133 A 
ATOM     11  C   UNL     1      88.269  46.289  42.008  1.00  0.00     0.093 A 
ENDROOT
BRANCH   1  12
ATOM     12  O   UNL     1      86.197  45.233  42.393  1.00  0.00    -0.508 OA
ATOM     13  H   UNL     1      86.641  44.569  42.947  1.00  0.00     0.293 HD
ENDBRANCH   1  12
BRANCH  10  14
ATOM     14  O   UNL     1      90.354  47.293  41.579  1.00  0.00    -0.507 OA
ATOM     15  H   UNL     1      90.623  46.360  41.739  1.00  0.00     0.293 HD
ENDBRANCH  10  14
BRANCH   5  16
ATOM     16  C   UNL     1      86.717  52.163  43.958  1.00  0.00    -0.006 A 
ATOM     17  C   UNL     1      85.617  52.550  43.181  1.00  0.00     0.011 A 
ATOM     18  C   UNL     1      87.064  52.945  45.074  1.00  0.00     0.019 A 
ATOM     19  C   UNL     1      84.888  53.696  43.507  1.00  0.00     0.047 A 
ATOM     20  C   UNL     1      86.333  54.096  45.401  1.00  0.00     0.017 A 
ATOM     21  C   UNL     1      85.245  54.467  44.613  1.00  0.00     0.127 A 
ATOM     22  C   UNL     1      86.700  54.901  46.554  1.00  0.00     0.012 C 
ATOM     23  O   UNL     1      84.470  55.566  44.849  1.00  0.00    -0.483 OA
ATOM     24  C   UNL     1      85.967  55.987  46.815  1.00  0.00     0.021 C 
ATOM     25  C   UNL     1      84.783  56.413  45.974  1.00  0.00     0.122 C 
ATOM     26  C   UNL     1      83.526  56.445  46.852  1.00  0.00     0.061 C 
ATOM     27  C   UNL     1      85.048  57.811  45.401  1.00  0.00     0.061 C 
ENDBRANCH   5  16
TORSDOF 3
ENDMDL
MODEL 6
REMARK VINA RESULT:    -8.680      2.537      9.001
REMARK INTER + INTRA:         -10.036
REMARK INTER:                  -9.673
REMARK INTRA:                  -0.363
REMARK UNBOUND:                -0.341
REMARK SMILES CC1(C)C=Cc2cc([C@@H]3CC(=O)c4c(O)cc(O)cc4O3)ccc2O1
REMARK SMILES IDX 17 1 19 2 20 3 21 4 9 5 10 6 11 7 12 8 13 9 14 10 16 11
REMARK SMILES IDX 18 12 15 14 8 16 22 17 7 18 23 19 6 20 24 21 5 22 25 23 4 24
REMARK SMILES IDX 2 25 1 26 3 27
REMARK H PARENT 18 13 15 15
ROOT
ATOM      1  C   UNL     1      85.447  44.939  42.935  1.00  0.00     0.123 A 
ATOM      2  C   UNL     1      85.368  46.330  42.938  1.00  0.00     0.093 A 
ATOM      3  C   UNL     1      86.530  47.080  42.759  1.00  0.00     0.138 A 
ATOM      4  O   UNL     1      86.385  48.443  42.780  1.00  0.00    -0.484 OA
ATOM      5  C   UNL     1      87.600  49.130  43.126  1.00  0.00     0.211 C 
ATOM      6  C   UNL     1      88.730  48.751  42.179  1.00  0.00     0.131 C 
ATOM      7  C   UNL     1      88.944  47.268  42.282  1.00  0.00     0.174 C 
ATOM      8  O   UNL     1      90.037  46.735  42.103  1.00  0.00    -0.294 OA
ATOM      9  C   UNL     1      87.753  46.439  42.543  1.00  0.00     0.102 A 
ATOM     10  C   UNL     1      87.818  45.042  42.543  1.00  0.00     0.133 A 
ATOM     11  C   UNL     1      86.663  44.290  42.744  1.00  0.00     0.093 A 
ENDROOT
BRANCH   1  12
ATOM     12  O   UNL     1      84.339  44.167  43.118  1.00  0.00    -0.508 OA
ATOM     13  H   UNL     1      83.712  44.638  43.692  1.00  0.00     0.293 HD
ENDBRANCH   1  12
BRANCH  10  14
ATOM     14  O   UNL     1      88.981  44.350  42.342  1.00  0.00    -0.507 OA
ATOM     15  H   UNL     1      88.885  43.816  41.521  1.00  0.00     0.293 HD
ENDBRANCH  10  14
BRANCH   5  16
ATOM     16  C   UNL     1      87.343  50.625  43.078  1.00  0.00    -0.006 A 
ATOM     17  C   UNL     1      88.066  51.432  42.189  1.00  0.00     0.011 A 
ATOM     18  C   UNL     1      86.363  51.224  43.889  1.00  0.00     0.019 A 
ATOM     19  C   UNL     1      87.820  52.806  42.120  1.00  0.00     0.047 A 
ATOM     20  C   UNL     1      86.116  52.603  43.821  1.00  0.00     0.017 A 
ATOM     21  C   UNL     1      86.849  53.389  42.934  1.00  0.00     0.127 A 
ATOM     22  C   UNL     1      85.104  53.215  44.665  1.00  0.00     0.012 C 
ATOM     23  O   UNL     1      86.683  54.737  42.791  1.00  0.00    -0.483 OA
ATOM     24  C   UNL     1      84.915  54.533  44.555  1.00  0.00     0.021 C 
ATOM     25  C   UNL     1      85.698  55.409  43.603  1.00  0.00     0.122 C 
ATOM     26  C   UNL     1      84.728  56.089  42.629  1.00  0.00     0.061 C 
ATOM     27  C   UNL     1      86.456  56.475  44.404  1.00  0.00     0.061 C 
ENDBRANCH   5  16
TORSDOF 3
ENDMDL
MODEL 7
REMARK VINA RESULT:    -8.621      2.813      4.500
REMARK INTER + INTRA:          -9.970
REMARK INTER:                  -9.625
REMARK INTRA:                  -0.344
REMARK UNBOUND:                -0.341
REMARK SMILES CC1(C)C=Cc2cc([C@@H]3CC(=O)c4c(O)cc(O)cc4O3)ccc2O1
REMARK SMILES IDX 17 1 19 2 20 3 21 4 9 5 10 6 11 7 12 8 13 9 14 10 16 11
REMARK SMILES IDX 18 12 15 14 8 16 22 17 7 18 23 19 6 20 24 21 5 22 25 23 4 24
REMARK SMILES IDX 2 25 1 26 3 27
REMARK H PARENT 18 13 15 15
ROOT
ATOM      1  C   UNL     1      86.340  54.501  45.694  1.00  0.00     0.123 A 
ATOM      2  C   UNL     1      86.633  53.156  45.475  1.00  0.00     0.093 A 
ATOM      3  C   UNL     1      86.552  52.641  44.181  1.00  0.00     0.138 A 
ATOM      4  O   UNL     1      86.845  51.311  44.035  1.00  0.00    -0.484 OA
ATOM      5  C   UNL     1      86.250  50.731  42.861  1.00  0.00     0.211 C 
ATOM      6  C   UNL     1      86.669  51.488  41.608  1.00  0.00     0.131 C 
ATOM      7  C   UNL     1      86.215  52.912  41.752  1.00  0.00     0.174 C 
ATOM      8  O   UNL     1      85.908  53.617  40.793  1.00  0.00    -0.294 OA
ATOM      9  C   UNL     1      86.215  53.478  43.113  1.00  0.00     0.102 A 
ATOM     10  C   UNL     1      85.922  54.825  43.347  1.00  0.00     0.133 A 
ATOM     11  C   UNL     1      85.980  55.337  44.641  1.00  0.00     0.093 A 
ENDROOT
BRANCH   1  12
ATOM     12  O   UNL     1      86.395  55.043  46.943  1.00  0.00    -0.508 OA
ATOM     13  H   UNL     1      86.801  54.403  47.552  1.00  0.00     0.293 HD
ENDBRANCH   1  12
BRANCH  10  14
ATOM     14  O   UNL     1      85.581  55.698  42.350  1.00  0.00    -0.507 OA
ATOM     15  H   UNL     1      86.395  56.169  42.061  1.00  0.00     0.293 HD
ENDBRANCH  10  14
BRANCH   5  16
ATOM     16  C   UNL     1      86.671  49.276  42.771  1.00  0.00    -0.006 A 
ATOM     17  C   UNL     1      87.782  48.914  41.998  1.00  0.00     0.011 A 
ATOM     18  C   UNL     1      85.985  48.273  43.479  1.00  0.00     0.019 A 
ATOM     19  C   UNL     1      88.192  47.580  41.928  1.00  0.00     0.047 A 
ATOM     20  C   UNL     1      86.395  46.934  43.408  1.00  0.00     0.017 A 
ATOM     21  C   UNL     1      87.500  46.593  42.630  1.00  0.00     0.127 A 
ATOM     22  C   UNL     1      85.679  45.902  44.139  1.00  0.00     0.012 C 
ATOM     23  O   UNL     1      87.979  45.322  42.497  1.00  0.00    -0.483 OA
ATOM     24  C   UNL     1      86.117  44.645  44.032  1.00  0.00     0.021 C 
ATOM     25  C   UNL     1      87.311  44.248  43.193  1.00  0.00     0.122 C 
ATOM     26  C   UNL     1      88.367  43.595  44.094  1.00  0.00     0.061 C 
ATOM     27  C   UNL     1      86.864  43.251  42.117  1.00  0.00     0.061 C 
ENDBRANCH   5  16
TORSDOF 3
ENDMDL
MODEL 8
REMARK VINA RESULT:    -8.428      2.149      8.300
REMARK INTER + INTRA:          -9.754
REMARK INTER:                  -9.401
REMARK INTRA:                  -0.353
REMARK UNBOUND:                -0.341
REMARK SMILES CC1(C)C=Cc2cc([C@@H]3CC(=O)c4c(O)cc(O)cc4O3)ccc2O1
REMARK SMILES IDX 17 1 19 2 20 3 21 4 9 5 10 6 11 7 12 8 13 9 14 10 16 11
REMARK SMILES IDX 18 12 15 14 8 16 22 17 7 18 23 19 6 20 24 21 5 22 25 23 4 24
REMARK SMILES IDX 2 25 1 26 3 27
REMARK H PARENT 18 13 15 15
ROOT
ATOM      1  C   UNL     1      89.220  47.758  41.798  1.00  0.00     0.123 A 
ATOM      2  C   UNL     1      88.789  49.038  42.140  1.00  0.00     0.093 A 
ATOM      3  C   UNL     1      87.532  49.201  42.724  1.00  0.00     0.138 A 
ATOM      4  O   UNL     1      87.165  50.486  43.029  1.00  0.00    -0.484 OA
ATOM      5  C   UNL     1      85.739  50.657  43.109  1.00  0.00     0.211 C 
ATOM      6  C   UNL     1      85.131  49.696  44.121  1.00  0.00     0.131 C 
ATOM      7  C   UNL     1      85.446  48.296  43.680  1.00  0.00     0.174 C 
ATOM      8  O   UNL     1      84.713  47.338  43.918  1.00  0.00    -0.294 OA
ATOM      9  C   UNL     1      86.733  48.086  42.993  1.00  0.00     0.102 A 
ATOM     10  C   UNL     1      87.178  46.808  42.644  1.00  0.00     0.133 A 
ATOM     11  C   UNL     1      88.423  46.643  42.040  1.00  0.00     0.093 A 
ENDROOT
BRANCH   1  12
ATOM     12  O   UNL     1      90.435  47.553  41.215  1.00  0.00    -0.508 OA
ATOM     13  H   UNL     1      91.080  47.304  41.898  1.00  0.00     0.293 HD
ENDBRANCH   1  12
BRANCH  10  14
ATOM     14  O   UNL     1      86.447  45.675  42.874  1.00  0.00    -0.507 OA
ATOM     15  H   UNL     1      86.790  45.247  43.691  1.00  0.00     0.293 HD
ENDBRANCH  10  14
BRANCH   5  16
ATOM     16  C   UNL     1      85.443  52.095  43.493  1.00  0.00    -0.006 A 
ATOM     17  C   UNL     1      84.466  52.819  42.797  1.00  0.00     0.011 A 
ATOM     18  C   UNL     1      86.108  52.716  44.565  1.00  0.00     0.019 A 
ATOM     19  C   UNL     1      84.169  54.136  43.158  1.00  0.00     0.047 A 
ATOM     20  C   UNL     1      85.811  54.038  44.927  1.00  0.00     0.017 A 
ATOM     21  C   UNL     1      84.840  54.743  44.219  1.00  0.00     0.127 A 
ATOM     22  C   UNL     1      86.505  54.674  46.034  1.00  0.00     0.012 C 
ATOM     23  O   UNL     1      84.477  56.030  44.494  1.00  0.00    -0.483 OA
ATOM     24  C   UNL     1      86.180  55.935  46.331  1.00  0.00     0.021 C 
ATOM     25  C   UNL     1      85.132  56.724  45.577  1.00  0.00     0.122 C 
ATOM     26  C   UNL     1      84.024  57.149  46.549  1.00  0.00     0.061 C 
ATOM     27  C   UNL     1      85.782  57.968  44.961  1.00  0.00     0.061 C 
ENDBRANCH   5  16
TORSDOF 3
ENDMDL
MODEL 9
REMARK VINA RESULT:    -8.409      3.053      4.182
REMARK INTER + INTRA:          -9.732
REMARK INTER:                  -9.392
REMARK INTRA:                  -0.341
REMARK UNBOUND:                -0.341
REMARK SMILES CC1(C)C=Cc2cc([C@@H]3CC(=O)c4c(O)cc(O)cc4O3)ccc2O1
REMARK SMILES IDX 17 1 19 2 20 3 21 4 9 5 10 6 11 7 12 8 13 9 14 10 16 11
REMARK SMILES IDX 18 12 15 14 8 16 22 17 7 18 23 19 6 20 24 21 5 22 25 23 4 24
REMARK SMILES IDX 2 25 1 26 3 27
REMARK H PARENT 18 13 15 15
ROOT
ATOM      1  C   UNL     1      84.440  56.217  46.493  1.00  0.00     0.123 A 
ATOM      2  C   UNL     1      84.603  54.849  46.288  1.00  0.00     0.093 A 
ATOM      3  C   UNL     1      84.813  54.373  44.993  1.00  0.00     0.138 A 
ATOM      4  O   UNL     1      84.959  53.017  44.859  1.00  0.00    -0.484 OA
ATOM      5  C   UNL     1      84.637  52.547  43.538  1.00  0.00     0.211 C 
ATOM      6  C   UNL     1      85.477  53.258  42.487  1.00  0.00     0.131 C 
ATOM      7  C   UNL     1      85.191  54.729  42.581  1.00  0.00     0.174 C 
ATOM      8  O   UNL     1      85.253  55.486  41.615  1.00  0.00    -0.294 OA
ATOM      9  C   UNL     1      84.893  55.266  43.921  1.00  0.00     0.102 A 
ATOM     10  C   UNL     1      84.726  56.637  44.141  1.00  0.00     0.133 A 
ATOM     11  C   UNL     1      84.494  57.114  45.429  1.00  0.00     0.093 A 
ENDROOT
BRANCH   1  12
ATOM     12  O   UNL     1      84.222  56.725  47.738  1.00  0.00    -0.508 OA
ATOM     13  H   UNL     1      84.861  57.436  47.911  1.00  0.00     0.293 HD
ENDBRANCH   1  12
BRANCH  10  14
ATOM     14  O   UNL     1      84.787  57.566  43.139  1.00  0.00    -0.507 OA
ATOM     15  H   UNL     1      84.026  58.181  43.240  1.00  0.00     0.293 HD
ENDBRANCH  10  14
BRANCH   5  16
ATOM     16  C   UNL     1      84.872  51.048  43.485  1.00  0.00    -0.006 A 
ATOM     17  C   UNL     1      86.180  50.544  43.470  1.00  0.00     0.011 A 
ATOM     18  C   UNL     1      83.798  50.140  43.484  1.00  0.00     0.019 A 
ATOM     19  C   UNL     1      86.407  49.166  43.445  1.00  0.00     0.047 A 
ATOM     20  C   UNL     1      84.026  48.757  43.458  1.00  0.00     0.017 A 
ATOM     21  C   UNL     1      85.333  48.275  43.439  1.00  0.00     0.127 A 
ATOM     22  C   UNL     1      82.911  47.825  43.454  1.00  0.00     0.012 C 
ATOM     23  O   UNL     1      85.660  46.950  43.415  1.00  0.00    -0.483 OA
ATOM     24  C   UNL     1      83.191  46.519  43.428  1.00  0.00     0.021 C 
ATOM     25  C   UNL     1      84.600  45.970  43.404  1.00  0.00     0.122 C 
ATOM     26  C   UNL     1      84.819  45.085  44.637  1.00  0.00     0.061 C 
ATOM     27  C   UNL     1      84.796  45.138  42.130  1.00  0.00     0.061 C 
ENDBRANCH   5  16
TORSDOF 3
ENDMDL
