MODEL 1
REMARK VINA RESULT:   -10.557      0.000      0.000
REMARK INTER + INTRA:         -13.569
REMARK INTER:                 -12.574
REMARK INTRA:                  -0.995
REMARK UNBOUND:                -0.852
REMARK SMILES CC(C)=CCc1cc(C2CC(=O)c3ccc(O)cc3O2)cc2c1OC(C)(C)C=C2
REMARK SMILES IDX 6 1 7 2 8 3 21 4 22 5 23 6 24 7 25 8 26 9 27 10 28 11 29 12
REMARK SMILES IDX 5 13 4 14 2 15 1 16 3 17 9 18 10 19 20 20 11 21 19 22 12 23
REMARK SMILES IDX 13 24 18 25 14 26 16 27 15 28 17 29
REMARK H PARENT 17 30
ROOT
ATOM      1  C   UNL     1      87.257  50.137  44.038  1.00  0.00    -0.001 A 
ATOM      2  C   UNL     1      85.860  50.050  43.891  1.00  0.00     0.015 A 
ATOM      3  C   UNL     1      85.267  48.992  43.183  1.00  0.00    -0.006 A 
ATOM      4  C   UNL     1      86.096  48.009  42.624  1.00  0.00     0.019 A 
ATOM      5  C   UNL     1      87.488  48.086  42.749  1.00  0.00     0.017 A 
ATOM      6  C   UNL     1      88.066  49.153  43.447  1.00  0.00     0.131 A 
ATOM      7  O   UNL     1      89.418  49.267  43.624  1.00  0.00    -0.483 OA
ATOM      8  C   UNL     1      90.291  48.478  42.791  1.00  0.00     0.122 C 
ATOM      9  C   UNL     1      90.819  49.390  41.678  1.00  0.00     0.061 C 
ATOM     10  C   UNL     1      91.451  48.051  43.699  1.00  0.00     0.061 C 
ATOM     11  C   UNL     1      89.656  47.248  42.187  1.00  0.00     0.021 C 
ATOM     12  C   UNL     1      88.334  47.054  42.167  1.00  0.00     0.012 C 
ENDROOT
BRANCH   1  13
ATOM     13  C   UNL     1      87.856  51.299  44.799  1.00  0.00     0.066 C 
BRANCH  13  14
ATOM     14  C   UNL     1      87.074  51.635  46.041  1.00  0.00    -0.023 C 
ATOM     15  C   UNL     1      87.196  51.105  47.275  1.00  0.00    -0.080 C 
ATOM     16  C   UNL     1      88.186  50.045  47.671  1.00  0.00     0.039 C 
ATOM     17  C   UNL     1      86.307  51.569  48.399  1.00  0.00     0.039 C 
ENDBRANCH  13  14
ENDBRANCH   1  13
BRANCH   3  18
ATOM     18  C   UNL     1      83.755  48.910  43.072  1.00  0.00     0.211 C 
ATOM     19  C   UNL     1      83.134  50.292  43.218  1.00  0.00     0.131 C 
ATOM     20  O   UNL     1      83.263  48.014  44.084  1.00  0.00    -0.484 OA
ATOM     21  C   UNL     1      81.646  50.153  43.075  1.00  0.00     0.170 C 
ATOM     22  C   UNL     1      81.897  47.912  44.088  1.00  0.00     0.134 A 
ATOM     23  O   UNL     1      80.940  51.040  42.606  1.00  0.00    -0.294 OA
ATOM     24  C   UNL     1      81.050  48.905  43.592  1.00  0.00     0.060 A 
ATOM     25  C   UNL     1      81.355  46.757  44.646  1.00  0.00     0.093 A 
ATOM     26  C   UNL     1      79.662  48.735  43.619  1.00  0.00     0.019 A 
ATOM     27  C   UNL     1      79.973  46.592  44.675  1.00  0.00     0.119 A 
ATOM     28  C   UNL     1      79.121  47.568  44.163  1.00  0.00     0.047 A 
BRANCH  27  29
ATOM     29  O   UNL     1      79.484  45.443  45.222  1.00  0.00    -0.508 OA
ATOM     30  H   UNL     1      79.738  44.692  44.660  1.00  0.00     0.293 HD
ENDBRANCH  27  29
ENDBRANCH   3  18
TORSDOF 4
ENDMDL
MODEL 2
REMARK VINA RESULT:   -10.223      3.765      7.541
REMARK INTER + INTRA:         -13.167
REMARK INTER:                 -12.119
REMARK INTRA:                  -1.048
REMARK UNBOUND:                -0.852
REMARK SMILES CC(C)=CCc1cc(C2CC(=O)c3ccc(O)cc3O2)cc2c1OC(C)(C)C=C2
REMARK SMILES IDX 6 1 7 2 8 3 21 4 22 5 23 6 24 7 25 8 26 9 27 10 28 11 29 12
REMARK SMILES IDX 5 13 4 14 2 15 1 16 3 17 9 18 10 19 20 20 11 21 19 22 12 23
REMARK SMILES IDX 13 24 18 25 14 26 16 27 15 28 17 29
REMARK H PARENT 17 30
ROOT
ATOM      1  C   UNL     1      83.113  50.136  43.271  1.00  0.00    -0.001 A 
ATOM      2  C   UNL     1      83.437  51.372  43.860  1.00  0.00     0.015 A 
ATOM      3  C   UNL     1      84.596  51.526  44.638  1.00  0.00    -0.006 A 
ATOM      4  C   UNL     1      85.439  50.419  44.816  1.00  0.00     0.019 A 
ATOM      5  C   UNL     1      85.124  49.178  44.249  1.00  0.00     0.017 A 
ATOM      6  C   UNL     1      83.960  49.037  43.486  1.00  0.00     0.131 A 
ATOM      7  O   UNL     1      83.614  47.856  42.886  1.00  0.00    -0.483 OA
ATOM      8  C   UNL     1      84.265  46.645  43.322  1.00  0.00     0.122 C 
ATOM      9  C   UNL     1      83.303  45.919  44.270  1.00  0.00     0.061 C 
ATOM     10  C   UNL     1      84.469  45.807  42.054  1.00  0.00     0.061 C 
ATOM     11  C   UNL     1      85.598  46.847  44.003  1.00  0.00     0.021 C 
ATOM     12  C   UNL     1      86.012  48.040  44.439  1.00  0.00     0.012 C 
ENDROOT
BRANCH   1  13
ATOM     13  C   UNL     1      81.848  50.010  42.449  1.00  0.00     0.066 C 
BRANCH  13  14
ATOM     14  C   UNL     1      80.605  50.161  43.286  1.00  0.00    -0.023 C 
ATOM     15  C   UNL     1      79.882  49.197  43.890  1.00  0.00    -0.080 C 
ATOM     16  C   UNL     1      80.197  47.727  43.861  1.00  0.00     0.039 C 
ATOM     17  C   UNL     1      78.651  49.548  44.685  1.00  0.00     0.039 C 
ENDBRANCH  13  14
ENDBRANCH   1  13
BRANCH   3  18
ATOM     18  C   UNL     1      84.935  52.882  45.231  1.00  0.00     0.211 C 
ATOM     19  C   UNL     1      84.145  53.116  46.511  1.00  0.00     0.131 C 
ATOM     20  O   UNL     1      84.650  53.900  44.255  1.00  0.00    -0.484 OA
ATOM     21  C   UNL     1      84.538  54.455  47.064  1.00  0.00     0.170 C 
ATOM     22  C   UNL     1      84.885  55.166  44.722  1.00  0.00     0.134 A 
ATOM     23  O   UNL     1      84.538  54.701  48.266  1.00  0.00    -0.294 OA
ATOM     24  C   UNL     1      84.869  55.502  46.077  1.00  0.00     0.060 A 
ATOM     25  C   UNL     1      85.124  56.152  43.768  1.00  0.00     0.093 A 
ATOM     26  C   UNL     1      85.124  56.815  46.487  1.00  0.00     0.019 A 
ATOM     27  C   UNL     1      85.374  57.459  44.180  1.00  0.00     0.119 A 
ATOM     28  C   UNL     1      85.381  57.799  45.531  1.00  0.00     0.047 A 
BRANCH  27  29
ATOM     29  O   UNL     1      85.613  58.392  43.214  1.00  0.00    -0.508 OA
ATOM     30  H   UNL     1      86.059  57.965  42.465  1.00  0.00     0.293 HD
ENDBRANCH  27  29
ENDBRANCH   3  18
TORSDOF 4
ENDMDL
MODEL 3
REMARK VINA RESULT:   -10.148      1.051      2.157
REMARK INTER + INTRA:         -13.076
REMARK INTER:                 -12.146
REMARK INTRA:                  -0.930
REMARK UNBOUND:                -0.852
REMARK SMILES CC(C)=CCc1cc(C2CC(=O)c3ccc(O)cc3O2)cc2c1OC(C)(C)C=C2
REMARK SMILES IDX 6 1 7 2 8 3 21 4 22 5 23 6 24 7 25 8 26 9 27 10 28 11 29 12
REMARK SMILES IDX 5 13 4 14 2 15 1 16 3 17 9 18 10 19 20 20 11 21 19 22 12 23
REMARK SMILES IDX 13 24 18 25 14 26 16 27 15 28 17 29
REMARK H PARENT 17 30
ROOT
ATOM      1  C   UNL     1      87.287  50.125  44.309  1.00  0.00    -0.001 A 
ATOM      2  C   UNL     1      85.928  49.784  44.436  1.00  0.00     0.015 A 
ATOM      3  C   UNL     1      85.389  48.675  43.765  1.00  0.00    -0.006 A 
ATOM      4  C   UNL     1      86.237  47.898  42.961  1.00  0.00     0.019 A 
ATOM      5  C   UNL     1      87.589  48.230  42.811  1.00  0.00     0.017 A 
ATOM      6  C   UNL     1      88.109  49.346  43.478  1.00  0.00     0.131 A 
ATOM      7  O   UNL     1      89.428  49.704  43.391  1.00  0.00    -0.483 OA
ATOM      8  C   UNL     1      90.225  49.141  42.330  1.00  0.00     0.122 C 
ATOM      9  C   UNL     1      90.337  50.198  41.224  1.00  0.00     0.061 C 
ATOM     10  C   UNL     1      91.609  48.891  42.943  1.00  0.00     0.061 C 
ATOM     11  C   UNL     1      89.698  47.849  41.751  1.00  0.00     0.021 C 
ATOM     12  C   UNL     1      88.457  47.411  41.978  1.00  0.00     0.012 C 
ENDROOT
BRANCH   1  13
ATOM     13  C   UNL     1      87.826  51.335  45.041  1.00  0.00     0.066 C 
BRANCH  13  14
ATOM     14  C   UNL     1      87.015  51.671  46.265  1.00  0.00    -0.023 C 
ATOM     15  C   UNL     1      87.118  51.151  47.504  1.00  0.00    -0.080 C 
ATOM     16  C   UNL     1      88.112  50.105  47.928  1.00  0.00     0.039 C 
ATOM     17  C   UNL     1      86.202  51.614  48.607  1.00  0.00     0.039 C 
ENDBRANCH  13  14
ENDBRANCH   1  13
BRANCH   3  18
ATOM     18  C   UNL     1      83.926  48.314  43.951  1.00  0.00     0.211 C 
ATOM     19  C   UNL     1      83.642  46.932  43.379  1.00  0.00     0.131 C 
ATOM     20  O   UNL     1      83.116  49.315  43.310  1.00  0.00    -0.484 OA
ATOM     21  C   UNL     1      82.192  46.620  43.613  1.00  0.00     0.170 C 
ATOM     22  C   UNL     1      81.776  49.047  43.389  1.00  0.00     0.134 A 
ATOM     23  O   UNL     1      81.781  45.477  43.787  1.00  0.00    -0.294 OA
ATOM     24  C   UNL     1      81.257  47.762  43.560  1.00  0.00     0.060 A 
ATOM     25  C   UNL     1      80.910  50.130  43.264  1.00  0.00     0.093 A 
ATOM     26  C   UNL     1      79.875  47.557  43.639  1.00  0.00     0.019 A 
ATOM     27  C   UNL     1      79.535  49.923  43.340  1.00  0.00     0.119 A 
ATOM     28  C   UNL     1      79.009  48.646  43.532  1.00  0.00     0.047 A 
BRANCH  27  29
ATOM     29  O   UNL     1      78.723  51.012  43.222  1.00  0.00    -0.508 OA
ATOM     30  H   UNL     1      78.376  51.050  42.316  1.00  0.00     0.293 HD
ENDBRANCH  27  29
ENDBRANCH   3  18
TORSDOF 4
ENDMDL
MODEL 4
REMARK VINA RESULT:    -9.942      3.249      6.776
REMARK INTER + INTRA:         -12.829
REMARK INTER:                 -12.028
REMARK INTRA:                  -0.801
REMARK UNBOUND:                -0.852
REMARK SMILES CC(C)=CCc1cc(C2CC(=O)c3ccc(O)cc3O2)cc2c1OC(C)(C)C=C2
REMARK SMILES IDX 6 1 7 2 8 3 21 4 22 5 23 6 24 7 25 8 26 9 27 10 28 11 29 12
REMARK SMILES IDX 5 13 4 14 2 15 1 16 3 17 9 18 10 19 20 20 11 21 19 22 12 23
REMARK SMILES IDX 13 24 18 25 14 26 16 27 15 28 17 29
REMARK H PARENT 17 30
ROOT
ATOM      1  C   UNL     1      83.144  48.419  43.516  1.00  0.00    -0.001 A 
ATOM      2  C   UNL     1      83.253  49.799  43.766  1.00  0.00     0.015 A 
ATOM      3  C   UNL     1      84.502  50.441  43.778  1.00  0.00    -0.006 A 
ATOM      4  C   UNL     1      85.653  49.678  43.529  1.00  0.00     0.019 A 
ATOM      5  C   UNL     1      85.564  48.300  43.293  1.00  0.00     0.017 A 
ATOM      6  C   UNL     1      84.313  47.673  43.295  1.00  0.00     0.131 A 
ATOM      7  O   UNL     1      84.163  46.335  43.045  1.00  0.00    -0.483 OA
ATOM      8  C   UNL     1      85.324  45.485  43.123  1.00  0.00     0.122 C 
ATOM      9  C   UNL     1      85.286  44.771  44.479  1.00  0.00     0.061 C 
ATOM     10  C   UNL     1      85.159  44.458  41.996  1.00  0.00     0.061 C 
ATOM     11  C   UNL     1      86.647  46.195  42.956  1.00  0.00     0.021 C 
ATOM     12  C   UNL     1      86.767  47.524  43.030  1.00  0.00     0.012 C 
ENDROOT
BRANCH   1  13
ATOM     13  C   UNL     1      81.780  47.764  43.524  1.00  0.00     0.066 C 
BRANCH  13  14
ATOM     14  C   UNL     1      80.708  48.680  44.055  1.00  0.00    -0.023 C 
ATOM     15  C   UNL     1      79.425  48.385  44.344  1.00  0.00    -0.080 C 
ATOM     16  C   UNL     1      78.792  47.028  44.204  1.00  0.00     0.039 C 
ATOM     17  C   UNL     1      78.493  49.449  44.863  1.00  0.00     0.039 C 
ENDBRANCH  13  14
ENDBRANCH   1  13
BRANCH   3  18
ATOM     18  C   UNL     1      84.582  51.938  44.016  1.00  0.00     0.211 C 
ATOM     19  C   UNL     1      85.828  52.515  43.358  1.00  0.00     0.131 C 
ATOM     20  O   UNL     1      84.586  52.184  45.433  1.00  0.00    -0.484 OA
ATOM     21  C   UNL     1      85.841  53.997  43.603  1.00  0.00     0.170 C 
ATOM     22  C   UNL     1      84.701  53.512  45.743  1.00  0.00     0.134 A 
ATOM     23  O   UNL     1      86.335  54.794  42.813  1.00  0.00    -0.294 OA
ATOM     24  C   UNL     1      85.280  54.454  44.891  1.00  0.00     0.060 A 
ATOM     25  C   UNL     1      84.231  53.909  46.993  1.00  0.00     0.093 A 
ATOM     26  C   UNL     1      85.361  55.799  45.266  1.00  0.00     0.019 A 
ATOM     27  C   UNL     1      84.315  55.248  47.365  1.00  0.00     0.119 A 
ATOM     28  C   UNL     1      84.872  56.198  46.511  1.00  0.00     0.047 A 
BRANCH  27  29
ATOM     29  O   UNL     1      83.835  55.595  48.593  1.00  0.00    -0.508 OA
ATOM     30  H   UNL     1      83.456  56.488  48.543  1.00  0.00     0.293 HD
ENDBRANCH  27  29
ENDBRANCH   3  18
TORSDOF 4
ENDMDL
MODEL 5
REMARK VINA RESULT:    -9.923      3.449      5.649
REMARK INTER + INTRA:         -12.805
REMARK INTER:                 -11.749
REMARK INTRA:                  -1.056
REMARK UNBOUND:                -0.852
REMARK SMILES CC(C)=CCc1cc(C2CC(=O)c3ccc(O)cc3O2)cc2c1OC(C)(C)C=C2
REMARK SMILES IDX 6 1 7 2 8 3 21 4 22 5 23 6 24 7 25 8 26 9 27 10 28 11 29 12
REMARK SMILES IDX 5 13 4 14 2 15 1 16 3 17 9 18 10 19 20 20 11 21 19 22 12 23
REMARK SMILES IDX 13 24 18 25 14 26 16 27 15 28 17 29
REMARK H PARENT 17 30
ROOT
ATOM      1  C   UNL     1      85.628  52.755  45.490  1.00  0.00    -0.001 A 
ATOM      2  C   UNL     1      85.242  51.452  45.128  1.00  0.00     0.015 A 
ATOM      3  C   UNL     1      84.569  51.200  43.922  1.00  0.00    -0.006 A 
ATOM      4  C   UNL     1      84.289  52.278  43.070  1.00  0.00     0.019 A 
ATOM      5  C   UNL     1      84.653  53.584  43.420  1.00  0.00     0.017 A 
ATOM      6  C   UNL     1      85.313  53.821  44.631  1.00  0.00     0.131 A 
ATOM      7  O   UNL     1      85.717  55.072  45.014  1.00  0.00    -0.483 OA
ATOM      8  C   UNL     1      85.155  56.214  44.338  1.00  0.00     0.122 C 
ATOM      9  C   UNL     1      84.055  56.790  45.237  1.00  0.00     0.061 C 
ATOM     10  C   UNL     1      86.302  57.226  44.216  1.00  0.00     0.061 C 
ATOM     11  C   UNL     1      84.595  55.930  42.964  1.00  0.00     0.021 C 
ATOM     12  C   UNL     1      84.361  54.692  42.522  1.00  0.00     0.012 C 
ENDROOT
BRANCH   1  13
ATOM     13  C   UNL     1      86.342  52.985  46.804  1.00  0.00     0.066 C 
BRANCH  13  14
ATOM     14  C   UNL     1      85.584  52.414  47.974  1.00  0.00    -0.023 C 
ATOM     15  C   UNL     1      84.608  52.994  48.701  1.00  0.00    -0.080 C 
ATOM     16  C   UNL     1      84.051  54.372  48.466  1.00  0.00     0.039 C 
ATOM     17  C   UNL     1      83.970  52.259  49.851  1.00  0.00     0.039 C 
ENDBRANCH  13  14
ENDBRANCH   1  13
BRANCH   3  18
ATOM     18  C   UNL     1      84.197  49.777  43.545  1.00  0.00     0.211 C 
ATOM     19  C   UNL     1      82.733  49.507  43.865  1.00  0.00     0.131 C 
ATOM     20  O   UNL     1      85.057  48.868  44.256  1.00  0.00    -0.484 OA
ATOM     21  C   UNL     1      82.417  48.098  43.450  1.00  0.00     0.170 C 
ATOM     22  C   UNL     1      84.762  47.554  44.010  1.00  0.00     0.134 A 
ATOM     23  O   UNL     1      81.305  47.758  43.061  1.00  0.00    -0.294 OA
ATOM     24  C   UNL     1      83.505  47.111  43.593  1.00  0.00     0.060 A 
ATOM     25  C   UNL     1      85.784  46.631  44.222  1.00  0.00     0.093 A 
ATOM     26  C   UNL     1      83.273  45.753  43.353  1.00  0.00     0.019 A 
ATOM     27  C   UNL     1      85.548  45.279  43.985  1.00  0.00     0.119 A 
ATOM     28  C   UNL     1      84.303  44.832  43.548  1.00  0.00     0.047 A 
BRANCH  27  29
ATOM     29  O   UNL     1      86.578  44.411  44.196  1.00  0.00    -0.508 OA
ATOM     30  H   UNL     1      86.230  43.597  44.595  1.00  0.00     0.293 HD
ENDBRANCH  27  29
ENDBRANCH   3  18
TORSDOF 4
ENDMDL
MODEL 6
REMARK VINA RESULT:    -9.901      3.934      7.253
REMARK INTER + INTRA:         -12.779
REMARK INTER:                 -11.822
REMARK INTRA:                  -0.957
REMARK UNBOUND:                -0.852
REMARK SMILES CC(C)=CCc1cc(C2CC(=O)c3ccc(O)cc3O2)cc2c1OC(C)(C)C=C2
REMARK SMILES IDX 6 1 7 2 8 3 21 4 22 5 23 6 24 7 25 8 26 9 27 10 28 11 29 12
REMARK SMILES IDX 5 13 4 14 2 15 1 16 3 17 9 18 10 19 20 20 11 21 19 22 12 23
REMARK SMILES IDX 13 24 18 25 14 26 16 27 15 28 17 29
REMARK H PARENT 17 30
ROOT
ATOM      1  C   UNL     1      86.516  53.313  43.832  1.00  0.00    -0.001 A 
ATOM      2  C   UNL     1      87.129  52.103  43.458  1.00  0.00     0.015 A 
ATOM      3  C   UNL     1      87.285  51.052  44.376  1.00  0.00    -0.006 A 
ATOM      4  C   UNL     1      86.809  51.224  45.684  1.00  0.00     0.019 A 
ATOM      5  C   UNL     1      86.209  52.426  46.078  1.00  0.00     0.017 A 
ATOM      6  C   UNL     1      86.071  53.470  45.155  1.00  0.00     0.131 A 
ATOM      7  O   UNL     1      85.470  54.658  45.475  1.00  0.00    -0.483 OA
ATOM      8  C   UNL     1      85.284  54.982  46.867  1.00  0.00     0.122 C 
ATOM      9  C   UNL     1      86.395  55.961  47.267  1.00  0.00     0.061 C 
ATOM     10  C   UNL     1      83.924  55.688  46.948  1.00  0.00     0.061 C 
ATOM     11  C   UNL     1      85.285  53.798  47.805  1.00  0.00     0.021 C 
ATOM     12  C   UNL     1      85.715  52.587  47.437  1.00  0.00     0.012 C 
ENDROOT
BRANCH   1  13
ATOM     13  C   UNL     1      86.378  54.426  42.816  1.00  0.00     0.066 C 
BRANCH  13  14
ATOM     14  C   UNL     1      85.176  54.244  41.928  1.00  0.00    -0.023 C 
ATOM     15  C   UNL     1      84.031  54.956  41.916  1.00  0.00    -0.080 C 
ATOM     16  C   UNL     1      83.725  56.126  42.810  1.00  0.00     0.039 C 
ATOM     17  C   UNL     1      82.927  54.614  40.949  1.00  0.00     0.039 C 
ENDBRANCH  13  14
ENDBRANCH   1  13
BRANCH   3  18
ATOM     18  C   UNL     1      87.920  49.746  43.930  1.00  0.00     0.211 C 
ATOM     19  C   UNL     1      88.998  50.008  42.888  1.00  0.00     0.131 C 
ATOM     20  O   UNL     1      86.894  48.885  43.407  1.00  0.00    -0.484 OA
ATOM     21  C   UNL     1      89.606  48.689  42.505  1.00  0.00     0.170 C 
ATOM     22  C   UNL     1      87.384  47.696  42.938  1.00  0.00     0.134 A 
ATOM     23  O   UNL     1      90.777  48.577  42.156  1.00  0.00    -0.294 OA
ATOM     24  C   UNL     1      88.700  47.523  42.504  1.00  0.00     0.060 A 
ATOM     25  C   UNL     1      86.492  46.628  42.878  1.00  0.00     0.093 A 
ATOM     26  C   UNL     1      89.139  46.278  42.042  1.00  0.00     0.019 A 
ATOM     27  C   UNL     1      86.931  45.391  42.415  1.00  0.00     0.119 A 
ATOM     28  C   UNL     1      88.248  45.205  42.000  1.00  0.00     0.047 A 
BRANCH  27  29
ATOM     29  O   UNL     1      86.027  44.370  42.381  1.00  0.00    -0.508 OA
ATOM     30  H   UNL     1      85.579  44.373  41.520  1.00  0.00     0.293 HD
ENDBRANCH  27  29
ENDBRANCH   3  18
TORSDOF 4
ENDMDL
MODEL 7
REMARK VINA RESULT:    -9.873      3.492      6.148
REMARK INTER + INTRA:         -12.745
REMARK INTER:                 -11.923
REMARK INTRA:                  -0.821
REMARK UNBOUND:                -0.852
REMARK SMILES CC(C)=CCc1cc(C2CC(=O)c3ccc(O)cc3O2)cc2c1OC(C)(C)C=C2
REMARK SMILES IDX 6 1 7 2 8 3 21 4 22 5 23 6 24 7 25 8 26 9 27 10 28 11 29 12
REMARK SMILES IDX 5 13 4 14 2 15 1 16 3 17 9 18 10 19 20 20 11 21 19 22 12 23
REMARK SMILES IDX 13 24 18 25 14 26 16 27 15 28 17 29
REMARK H PARENT 17 30
ROOT
ATOM      1  C   UNL     1      86.872  49.282  43.615  1.00  0.00    -0.001 A 
ATOM      2  C   UNL     1      86.196  50.476  43.927  1.00  0.00     0.015 A 
ATOM      3  C   UNL     1      86.732  51.727  43.582  1.00  0.00    -0.006 A 
ATOM      4  C   UNL     1      87.962  51.770  42.909  1.00  0.00     0.019 A 
ATOM      5  C   UNL     1      88.655  50.592  42.603  1.00  0.00     0.017 A 
ATOM      6  C   UNL     1      88.114  49.353  42.964  1.00  0.00     0.131 A 
ATOM      7  O   UNL     1      88.733  48.168  42.668  1.00  0.00    -0.483 OA
ATOM      8  C   UNL     1      90.124  48.193  42.292  1.00  0.00     0.122 C 
ATOM      9  C   UNL     1      90.944  47.790  43.524  1.00  0.00     0.061 C 
ATOM     10  C   UNL     1      90.275  47.125  41.202  1.00  0.00     0.061 C 
ATOM     11  C   UNL     1      90.618  49.518  41.760  1.00  0.00     0.021 C 
ATOM     12  C   UNL     1      89.927  50.653  41.899  1.00  0.00     0.012 C 
ENDROOT
BRANCH   1  13
ATOM     13  C   UNL     1      86.265  47.954  44.015  1.00  0.00     0.066 C 
BRANCH  13  14
ATOM     14  C   UNL     1      84.787  47.892  43.731  1.00  0.00    -0.023 C 
ATOM     15  C   UNL     1      84.113  46.976  43.007  1.00  0.00    -0.080 C 
ATOM     16  C   UNL     1      84.726  45.782  42.329  1.00  0.00     0.039 C 
ATOM     17  C   UNL     1      82.622  47.088  42.827  1.00  0.00     0.039 C 
ENDBRANCH  13  14
ENDBRANCH   1  13
BRANCH   3  18
ATOM     18  C   UNL     1      85.961  52.995  43.902  1.00  0.00     0.211 C 
ATOM     19  C   UNL     1      86.565  54.185  43.167  1.00  0.00     0.131 C 
ATOM     20  O   UNL     1      85.978  53.204  45.325  1.00  0.00    -0.484 OA
ATOM     21  C   UNL     1      85.749  55.401  43.500  1.00  0.00     0.170 C 
ATOM     22  C   UNL     1      85.341  54.355  45.703  1.00  0.00     0.134 A 
ATOM     23  O   UNL     1      85.603  56.334  42.717  1.00  0.00    -0.294 OA
ATOM     24  C   UNL     1      85.174  55.455  44.859  1.00  0.00     0.060 A 
ATOM     25  C   UNL     1      84.870  54.411  47.012  1.00  0.00     0.093 A 
ATOM     26  C   UNL     1      84.506  56.600  45.306  1.00  0.00     0.019 A 
ATOM     27  C   UNL     1      84.209  55.554  47.455  1.00  0.00     0.119 A 
ATOM     28  C   UNL     1      84.018  56.647  46.613  1.00  0.00     0.047 A 
BRANCH  27  29
ATOM     29  O   UNL     1      83.755  55.563  48.741  1.00  0.00    -0.508 OA
ATOM     30  H   UNL     1      84.270  56.208  49.253  1.00  0.00     0.293 HD
ENDBRANCH  27  29
ENDBRANCH   3  18
TORSDOF 4
ENDMDL
MODEL 8
REMARK VINA RESULT:    -9.656      3.222      6.369
REMARK INTER + INTRA:         -12.484
REMARK INTER:                 -11.631
REMARK INTRA:                  -0.852
REMARK UNBOUND:                -0.852
REMARK SMILES CC(C)=CCc1cc(C2CC(=O)c3ccc(O)cc3O2)cc2c1OC(C)(C)C=C2
REMARK SMILES IDX 6 1 7 2 8 3 21 4 22 5 23 6 24 7 25 8 26 9 27 10 28 11 29 12
REMARK SMILES IDX 5 13 4 14 2 15 1 16 3 17 9 18 10 19 20 20 11 21 19 22 12 23
REMARK SMILES IDX 13 24 18 25 14 26 16 27 15 28 17 29
REMARK H PARENT 17 30
ROOT
ATOM      1  C   UNL     1      84.444  47.360  43.399  1.00  0.00    -0.001 A 
ATOM      2  C   UNL     1      84.427  48.753  43.598  1.00  0.00     0.015 A 
ATOM      3  C   UNL     1      85.574  49.534  43.381  1.00  0.00    -0.006 A 
ATOM      4  C   UNL     1      86.749  48.899  42.952  1.00  0.00     0.019 A 
ATOM      5  C   UNL     1      86.788  47.512  42.762  1.00  0.00     0.017 A 
ATOM      6  C   UNL     1      85.640  46.745  42.994  1.00  0.00     0.131 A 
ATOM      7  O   UNL     1      85.611  45.390  42.800  1.00  0.00    -0.483 OA
ATOM      8  C   UNL     1      86.862  44.683  42.692  1.00  0.00     0.122 C 
ATOM      9  C   UNL     1      87.140  44.025  44.049  1.00  0.00     0.061 C 
ATOM     10  C   UNL     1      86.633  43.599  41.632  1.00  0.00     0.061 C 
ATOM     11  C   UNL     1      88.042  45.533  42.285  1.00  0.00     0.021 C 
ATOM     12  C   UNL     1      88.013  46.869  42.311  1.00  0.00     0.012 C 
ENDROOT
BRANCH   1  13
ATOM     13  C   UNL     1      83.189  46.554  43.655  1.00  0.00     0.066 C 
BRANCH  13  14
ATOM     14  C   UNL     1      81.936  47.361  43.439  1.00  0.00    -0.023 C 
ATOM     15  C   UNL     1      80.738  47.224  44.042  1.00  0.00    -0.080 C 
ATOM     16  C   UNL     1      80.411  46.208  45.103  1.00  0.00     0.039 C 
ATOM     17  C   UNL     1      79.591  48.131  43.682  1.00  0.00     0.039 C 
ENDBRANCH  13  14
ENDBRANCH   1  13
BRANCH   3  18
ATOM     18  C   UNL     1      85.513  51.039  43.572  1.00  0.00     0.211 C 
ATOM     19  C   UNL     1      84.648  51.388  44.776  1.00  0.00     0.131 C 
ATOM     20  O   UNL     1      84.993  51.638  42.372  1.00  0.00    -0.484 OA
ATOM     21  C   UNL     1      84.645  52.882  44.930  1.00  0.00     0.170 C 
ATOM     22  C   UNL     1      84.860  52.998  42.470  1.00  0.00     0.134 A 
ATOM     23  O   UNL     1      84.540  53.433  46.020  1.00  0.00    -0.294 OA
ATOM     24  C   UNL     1      84.710  53.671  43.684  1.00  0.00     0.060 A 
ATOM     25  C   UNL     1      84.851  53.715  41.277  1.00  0.00     0.093 A 
ATOM     26  C   UNL     1      84.585  55.064  43.714  1.00  0.00     0.019 A 
ATOM     27  C   UNL     1      84.724  55.102  41.310  1.00  0.00     0.119 A 
ATOM     28  C   UNL     1      84.596  55.783  42.519  1.00  0.00     0.047 A 
BRANCH  27  29
ATOM     29  O   UNL     1      84.730  55.767  40.120  1.00  0.00    -0.508 OA
ATOM     30  H   UNL     1      83.843  55.723  39.728  1.00  0.00     0.293 HD
ENDBRANCH  27  29
ENDBRANCH   3  18
TORSDOF 4
ENDMDL
MODEL 9
REMARK VINA RESULT:    -9.400      3.865      6.827
REMARK INTER + INTRA:         -12.176
REMARK INTER:                 -11.092
REMARK INTRA:                  -1.084
REMARK UNBOUND:                -0.852
REMARK SMILES CC(C)=CCc1cc(C2CC(=O)c3ccc(O)cc3O2)cc2c1OC(C)(C)C=C2
REMARK SMILES IDX 6 1 7 2 8 3 21 4 22 5 23 6 24 7 25 8 26 9 27 10 28 11 29 12
REMARK SMILES IDX 5 13 4 14 2 15 1 16 3 17 9 18 10 19 20 20 11 21 19 22 12 23
REMARK SMILES IDX 13 24 18 25 14 26 16 27 15 28 17 29
REMARK H PARENT 17 30
ROOT
ATOM      1  C   UNL     1      86.349  49.683  44.073  1.00  0.00    -0.001 A 
ATOM      2  C   UNL     1      86.070  51.054  43.925  1.00  0.00     0.015 A 
ATOM      3  C   UNL     1      84.780  51.504  43.603  1.00  0.00    -0.006 A 
ATOM      4  C   UNL     1      83.759  50.556  43.436  1.00  0.00     0.019 A 
ATOM      5  C   UNL     1      84.021  49.187  43.566  1.00  0.00     0.017 A 
ATOM      6  C   UNL     1      85.315  48.753  43.876  1.00  0.00     0.131 A 
ATOM      7  O   UNL     1      85.626  47.430  44.041  1.00  0.00    -0.483 OA
ATOM      8  C   UNL     1      84.700  46.439  43.552  1.00  0.00     0.122 C 
ATOM      9  C   UNL     1      85.235  45.927  42.209  1.00  0.00     0.061 C 
ATOM     10  C   UNL     1      84.728  45.304  44.583  1.00  0.00     0.061 C 
ATOM     11  C   UNL     1      83.278  46.922  43.385  1.00  0.00     0.021 C 
ATOM     12  C   UNL     1      82.950  48.217  43.395  1.00  0.00     0.012 C 
ENDROOT
BRANCH   1  13
ATOM     13  C   UNL     1      87.757  49.239  44.409  1.00  0.00     0.066 C 
BRANCH  13  14
ATOM     14  C   UNL     1      88.761  49.698  43.385  1.00  0.00    -0.023 C 
ATOM     15  C   UNL     1      89.069  49.127  42.203  1.00  0.00    -0.080 C 
ATOM     16  C   UNL     1      88.433  47.882  41.646  1.00  0.00     0.039 C 
ATOM     17  C   UNL     1      90.118  49.735  41.309  1.00  0.00     0.039 C 
ENDBRANCH  13  14
ENDBRANCH   1  13
BRANCH   3  18
ATOM     18  C   UNL     1      84.505  52.992  43.484  1.00  0.00     0.211 C 
ATOM     19  C   UNL     1      84.785  53.474  42.067  1.00  0.00     0.131 C 
ATOM     20  O   UNL     1      85.321  53.694  44.438  1.00  0.00    -0.484 OA
ATOM     21  C   UNL     1      84.472  54.941  42.002  1.00  0.00     0.170 C 
ATOM     22  C   UNL     1      85.171  55.053  44.371  1.00  0.00     0.134 A 
ATOM     23  O   UNL     1      84.068  55.487  40.981  1.00  0.00    -0.294 OA
ATOM     24  C   UNL     1      84.740  55.724  43.225  1.00  0.00     0.060 A 
ATOM     25  C   UNL     1      85.498  55.778  45.514  1.00  0.00     0.093 A 
ATOM     26  C   UNL     1      84.601  57.116  43.226  1.00  0.00     0.019 A 
ATOM     27  C   UNL     1      85.362  57.164  45.511  1.00  0.00     0.119 A 
ATOM     28  C   UNL     1      84.912  57.840  44.378  1.00  0.00     0.047 A 
BRANCH  27  29
ATOM     29  O   UNL     1      85.683  57.834  46.654  1.00  0.00    -0.508 OA
ATOM     30  H   UNL     1      86.243  58.595  46.427  1.00  0.00     0.293 HD
ENDBRANCH  27  29
ENDBRANCH   3  18
TORSDOF 4
ENDMDL
