MODEL 1
REMARK VINA RESULT:    -6.534      0.000      0.000
REMARK INTER + INTRA:          -7.830
REMARK INTER:                  -7.980
REMARK INTRA:                   0.150
REMARK UNBOUND:                 0.041
REMARK SMILES CC(=O)O[C@H]1CC[C@]2(C)[C@H]3CC[C@]4(C)C(=CC[C@@]5(C(=O)O)CCC(C)(C)C[C@H]54)[C@]3(C)CC[C@H]2C1(C)C
REMARK SMILES IDX 5 1 6 2 7 3 8 4 33 5 34 6 35 7 36 8 32 9 31 10 29 11 10 12
REMARK SMILES IDX 11 13 12 14 13 15 15 16 16 17 17 18 18 19 28 20 27 21 24 22
REMARK SMILES IDX 25 23 26 24 23 25 22 26 14 27 30 28 9 29 4 30 2 31 3 32 1 33
REMARK SMILES IDX 19 34 20 35 21 36
REMARK H PARENT 21 37
ROOT
ATOM      1  C   UNL     1      86.164  54.882  43.156  1.00  0.00     0.182 C 
ATOM      2  C   UNL     1      87.188  54.077  42.359  1.00  0.00     0.046 C 
ATOM      3  C   UNL     1      87.614  52.779  43.054  1.00  0.00     0.011 C 
ATOM      4  C   UNL     1      86.466  51.985  43.767  1.00  0.00    -0.025 C 
ATOM      5  C   UNL     1      85.085  52.510  43.242  1.00  0.00     0.005 C 
ATOM      6  C   UNL     1      84.843  54.067  43.372  1.00  0.00     0.005 C 
ATOM      7  C   UNL     1      83.867  54.483  42.232  1.00  0.00     0.015 C 
ATOM      8  C   UNL     1      84.154  54.474  44.693  1.00  0.00     0.015 C 
ATOM      9  C   UNL     1      83.920  51.652  43.765  1.00  0.00     0.006 C 
ATOM     10  C   UNL     1      84.071  50.181  43.377  1.00  0.00     0.012 C 
ATOM     11  C   UNL     1      85.409  49.511  43.813  1.00  0.00    -0.008 C 
ATOM     12  C   UNL     1      86.587  50.446  43.375  1.00  0.00     0.005 C 
ATOM     13  C   UNL     1      87.982  49.837  43.659  1.00  0.00     0.006 C 
ATOM     14  C   UNL     1      88.017  48.315  43.781  1.00  0.00     0.012 C 
ATOM     15  C   UNL     1      86.998  47.564  42.886  1.00  0.00    -0.007 C 
ATOM     16  C   UNL     1      85.582  48.119  43.126  1.00  0.00    -0.062 C 
ATOM     17  C   UNL     1      84.537  47.369  42.721  1.00  0.00    -0.025 C 
ATOM     18  C   UNL     1      84.712  46.009  42.128  1.00  0.00     0.046 C 
ATOM     19  C   UNL     1      85.779  45.180  42.875  1.00  0.00     0.075 C 
ATOM     20  C   UNL     1      87.061  46.017  43.259  1.00  0.00     0.017 C 
ATOM     21  C   UNL     1      88.370  45.332  42.779  1.00  0.00     0.012 C 
ATOM     22  C   UNL     1      88.464  43.827  43.122  1.00  0.00    -0.035 C 
ATOM     23  C   UNL     1      89.715  43.250  42.427  1.00  0.00     0.011 C 
ATOM     24  C   UNL     1      88.648  43.628  44.640  1.00  0.00     0.011 C 
ATOM     25  C   UNL     1      87.211  43.062  42.638  1.00  0.00     0.007 C 
ATOM     26  C   UNL     1      86.156  43.963  41.996  1.00  0.00     0.020 C 
ATOM     27  C   UNL     1      87.390  47.796  41.402  1.00  0.00     0.016 C 
ATOM     28  C   UNL     1      85.345  49.249  45.338  1.00  0.00     0.016 C 
ATOM     29  C   UNL     1      86.620  52.187  45.294  1.00  0.00     0.012 C 
ENDROOT
BRANCH   1  30
ATOM     30  O   UNL     1      86.744  55.263  44.421  1.00  0.00    -0.462 OA
BRANCH  30  31
ATOM     31  C   UNL     1      86.482  56.521  44.865  1.00  0.00     0.302 C 
ATOM     32  O   UNL     1      86.460  57.533  44.180  1.00  0.00    -0.253 OA
ATOM     33  C   UNL     1      86.223  56.493  46.340  1.00  0.00     0.139 C 
ENDBRANCH  30  31
ENDBRANCH   1  30
BRANCH  19  34
ATOM     34  C   UNL     1      85.082  44.683  44.159  1.00  0.00     0.310 C 
ATOM     35  O   UNL     1      84.491  43.628  44.328  1.00  0.00    -0.252 OA
BRANCH  34  36
ATOM     36  O   UNL     1      85.199  45.532  45.203  1.00  0.00    -0.481 OA
ATOM     37  H   UNL     1      85.738  46.265  44.839  1.00  0.00     0.296 HD
ENDBRANCH  34  36
ENDBRANCH  19  34
TORSDOF 4
ENDMDL
MODEL 2
REMARK VINA RESULT:    -4.950      2.323      4.153
REMARK INTER + INTRA:          -5.922
REMARK INTER:                  -5.539
REMARK INTRA:                  -0.384
REMARK UNBOUND:                 0.041
REMARK SMILES CC(=O)O[C@H]1CC[C@]2(C)[C@H]3CC[C@]4(C)C(=CC[C@@]5(C(=O)O)CCC(C)(C)C[C@H]54)[C@]3(C)CC[C@H]2C1(C)C
REMARK SMILES IDX 5 1 6 2 7 3 8 4 33 5 34 6 35 7 36 8 32 9 31 10 29 11 10 12
REMARK SMILES IDX 11 13 12 14 13 15 15 16 16 17 17 18 18 19 28 20 27 21 24 22
REMARK SMILES IDX 25 23 26 24 23 25 22 26 14 27 30 28 9 29 4 30 2 31 3 32 1 33
REMARK SMILES IDX 19 34 20 35 21 36
REMARK H PARENT 21 37
ROOT
ATOM      1  C   UNL     1      84.530  55.800  47.011  1.00  0.00     0.182 C 
ATOM      2  C   UNL     1      84.394  54.440  47.692  1.00  0.00     0.046 C 
ATOM      3  C   UNL     1      84.088  53.300  46.715  1.00  0.00     0.011 C 
ATOM      4  C   UNL     1      84.861  53.352  45.352  1.00  0.00    -0.025 C 
ATOM      5  C   UNL     1      86.068  54.343  45.491  1.00  0.00     0.005 C 
ATOM      6  C   UNL     1      85.710  55.805  45.980  1.00  0.00     0.005 C 
ATOM      7  C   UNL     1      86.957  56.365  46.725  1.00  0.00     0.015 C 
ATOM      8  C   UNL     1      85.427  56.787  44.822  1.00  0.00     0.015 C 
ATOM      9  C   UNL     1      86.974  54.306  44.249  1.00  0.00     0.006 C 
ATOM     10  C   UNL     1      87.515  52.902  43.975  1.00  0.00     0.012 C 
ATOM     11  C   UNL     1      86.434  51.789  43.827  1.00  0.00    -0.008 C 
ATOM     12  C   UNL     1      85.448  51.905  45.040  1.00  0.00     0.005 C 
ATOM     13  C   UNL     1      84.384  50.781  45.065  1.00  0.00     0.006 C 
ATOM     14  C   UNL     1      84.762  49.509  44.309  1.00  0.00     0.012 C 
ATOM     15  C   UNL     1      86.272  49.162  44.324  1.00  0.00    -0.007 C 
ATOM     16  C   UNL     1      87.092  50.373  43.839  1.00  0.00    -0.062 C 
ATOM     17  C   UNL     1      88.363  50.154  43.446  1.00  0.00    -0.025 C 
ATOM     18  C   UNL     1      88.959  48.784  43.397  1.00  0.00     0.046 C 
ATOM     19  C   UNL     1      87.976  47.740  42.825  1.00  0.00     0.075 C 
ATOM     20  C   UNL     1      86.502  47.914  43.362  1.00  0.00     0.017 C 
ATOM     21  C   UNL     1      85.935  46.590  43.945  1.00  0.00     0.012 C 
ATOM     22  C   UNL     1      86.143  45.355  43.038  1.00  0.00    -0.035 C 
ATOM     23  C   UNL     1      85.702  44.100  43.822  1.00  0.00     0.011 C 
ATOM     24  C   UNL     1      85.253  45.448  41.782  1.00  0.00     0.011 C 
ATOM     25  C   UNL     1      87.625  45.205  42.625  1.00  0.00     0.007 C 
ATOM     26  C   UNL     1      88.521  46.329  43.148  1.00  0.00     0.020 C 
ATOM     27  C   UNL     1      86.679  48.824  45.783  1.00  0.00     0.016 C 
ATOM     28  C   UNL     1      85.756  51.953  42.445  1.00  0.00     0.016 C 
ATOM     29  C   UNL     1      83.867  53.801  44.254  1.00  0.00     0.012 C 
ENDROOT
BRANCH   1  30
ATOM     30  O   UNL     1      83.283  56.133  46.366  1.00  0.00    -0.462 OA
BRANCH  30  31
ATOM     31  C   UNL     1      82.608  57.211  46.848  1.00  0.00     0.302 C 
ATOM     32  O   UNL     1      83.051  58.345  46.951  1.00  0.00    -0.253 OA
ATOM     33  C   UNL     1      81.222  56.804  47.243  1.00  0.00     0.139 C 
ENDBRANCH  30  31
ENDBRANCH   1  30
BRANCH  19  34
ATOM     34  C   UNL     1      87.998  47.957  41.297  1.00  0.00     0.310 C 
ATOM     35  O   UNL     1      87.280  48.693  40.637  1.00  0.00    -0.252 OA
BRANCH  34  36
ATOM     36  O   UNL     1      88.965  47.261  40.664  1.00  0.00    -0.481 OA
ATOM     37  H   UNL     1      89.636  47.944  40.454  1.00  0.00     0.296 HD
ENDBRANCH  34  36
ENDBRANCH  19  34
TORSDOF 4
ENDMDL
MODEL 3
REMARK VINA RESULT:    -3.956      1.569      9.317
REMARK INTER + INTRA:          -4.725
REMARK INTER:                  -4.052
REMARK INTRA:                  -0.673
REMARK UNBOUND:                 0.041
REMARK SMILES CC(=O)O[C@H]1CC[C@]2(C)[C@H]3CC[C@]4(C)C(=CC[C@@]5(C(=O)O)CCC(C)(C)C[C@H]54)[C@]3(C)CC[C@H]2C1(C)C
REMARK SMILES IDX 5 1 6 2 7 3 8 4 33 5 34 6 35 7 36 8 32 9 31 10 29 11 10 12
REMARK SMILES IDX 11 13 12 14 13 15 15 16 16 17 17 18 18 19 28 20 27 21 24 22
REMARK SMILES IDX 25 23 26 24 23 25 22 26 14 27 30 28 9 29 4 30 2 31 3 32 1 33
REMARK SMILES IDX 19 34 20 35 21 36
REMARK H PARENT 21 37
ROOT
ATOM      1  C   UNL     1      86.984  45.969  42.501  1.00  0.00     0.182 C 
ATOM      2  C   UNL     1      85.582  46.540  42.694  1.00  0.00     0.046 C 
ATOM      3  C   UNL     1      85.505  47.603  43.796  1.00  0.00     0.011 C 
ATOM      4  C   UNL     1      86.709  48.606  43.853  1.00  0.00    -0.025 C 
ATOM      5  C   UNL     1      87.500  48.525  42.502  1.00  0.00     0.005 C 
ATOM      6  C   UNL     1      88.000  47.086  42.079  1.00  0.00     0.005 C 
ATOM      7  C   UNL     1      88.078  47.059  40.524  1.00  0.00     0.015 C 
ATOM      8  C   UNL     1      89.422  46.756  42.583  1.00  0.00     0.015 C 
ATOM      9  C   UNL     1      88.586  49.612  42.419  1.00  0.00     0.006 C 
ATOM     10  C   UNL     1      88.004  51.018  42.570  1.00  0.00     0.012 C 
ATOM     11  C   UNL     1      87.167  51.257  43.862  1.00  0.00    -0.008 C 
ATOM     12  C   UNL     1      86.137  50.085  44.000  1.00  0.00     0.005 C 
ATOM     13  C   UNL     1      85.169  50.265  45.195  1.00  0.00     0.006 C 
ATOM     14  C   UNL     1      84.992  51.703  45.679  1.00  0.00     0.012 C 
ATOM     15  C   UNL     1      85.082  52.782  44.571  1.00  0.00    -0.007 C 
ATOM     16  C   UNL     1      86.391  52.610  43.777  1.00  0.00    -0.062 C 
ATOM     17  C   UNL     1      86.813  53.649  43.028  1.00  0.00    -0.025 C 
ATOM     18  C   UNL     1      86.099  54.961  43.009  1.00  0.00     0.046 C 
ATOM     19  C   UNL     1      85.640  55.397  44.417  1.00  0.00     0.075 C 
ATOM     20  C   UNL     1      85.039  54.212  45.270  1.00  0.00     0.017 C 
ATOM     21  C   UNL     1      83.640  54.562  45.847  1.00  0.00     0.012 C 
ATOM     22  C   UNL     1      83.561  55.946  46.532  1.00  0.00    -0.035 C 
ATOM     23  C   UNL     1      82.084  56.227  46.884  1.00  0.00     0.011 C 
ATOM     24  C   UNL     1      84.355  55.942  47.853  1.00  0.00     0.011 C 
ATOM     25  C   UNL     1      84.087  57.063  45.602  1.00  0.00     0.007 C 
ATOM     26  C   UNL     1      84.614  56.545  44.263  1.00  0.00     0.020 C 
ATOM     27  C   UNL     1      83.878  52.596  43.610  1.00  0.00     0.016 C 
ATOM     28  C   UNL     1      88.145  51.381  45.056  1.00  0.00     0.016 C 
ATOM     29  C   UNL     1      87.593  48.226  45.066  1.00  0.00     0.012 C 
ENDROOT
BRANCH   1  30
ATOM     30  O   UNL     1      87.406  45.328  43.722  1.00  0.00    -0.462 OA
BRANCH  30  31
ATOM     31  C   UNL     1      87.180  43.990  43.826  1.00  0.00     0.302 C 
ATOM     32  O   UNL     1      86.101  43.460  44.041  1.00  0.00    -0.253 OA
ATOM     33  C   UNL     1      88.466  43.245  43.637  1.00  0.00     0.139 C 
ENDBRANCH  30  31
ENDBRANCH   1  30
BRANCH  19  34
ATOM     34  C   UNL     1      86.910  55.938  45.108  1.00  0.00     0.310 C 
ATOM     35  O   UNL     1      87.314  55.686  46.232  1.00  0.00    -0.252 OA
BRANCH  34  36
ATOM     36  O   UNL     1      87.649  56.753  44.325  1.00  0.00    -0.481 OA
ATOM     37  H   UNL     1      87.980  57.430  44.951  1.00  0.00     0.296 HD
ENDBRANCH  34  36
ENDBRANCH  19  34
TORSDOF 4
ENDMDL
MODEL 4
REMARK VINA RESULT:    -3.584      3.099      5.149
REMARK INTER + INTRA:          -4.276
REMARK INTER:                  -5.320
REMARK INTRA:                   1.044
REMARK UNBOUND:                 0.041
REMARK SMILES CC(=O)O[C@H]1CC[C@]2(C)[C@H]3CC[C@]4(C)C(=CC[C@@]5(C(=O)O)CCC(C)(C)C[C@H]54)[C@]3(C)CC[C@H]2C1(C)C
REMARK SMILES IDX 5 1 6 2 7 3 8 4 33 5 34 6 35 7 36 8 32 9 31 10 29 11 10 12
REMARK SMILES IDX 11 13 12 14 13 15 15 16 16 17 17 18 18 19 28 20 27 21 24 22
REMARK SMILES IDX 25 23 26 24 23 25 22 26 14 27 30 28 9 29 4 30 2 31 3 32 1 33
REMARK SMILES IDX 19 34 20 35 21 36
REMARK H PARENT 21 37
ROOT
ATOM      1  C   UNL     1      84.735  54.978  48.373  1.00  0.00     0.182 C 
ATOM      2  C   UNL     1      85.603  53.792  48.786  1.00  0.00     0.046 C 
ATOM      3  C   UNL     1      85.537  52.619  47.803  1.00  0.00     0.011 C 
ATOM      4  C   UNL     1      85.522  53.010  46.284  1.00  0.00    -0.025 C 
ATOM      5  C   UNL     1      85.992  54.498  46.140  1.00  0.00     0.005 C 
ATOM      6  C   UNL     1      85.190  55.563  46.992  1.00  0.00     0.005 C 
ATOM      7  C   UNL     1      86.162  56.740  47.301  1.00  0.00     0.015 C 
ATOM      8  C   UNL     1      83.996  56.182  46.235  1.00  0.00     0.015 C 
ATOM      9  C   UNL     1      86.174  54.892  44.663  1.00  0.00     0.006 C 
ATOM     10  C   UNL     1      87.174  53.984  43.947  1.00  0.00     0.012 C 
ATOM     11  C   UNL     1      86.857  52.459  44.014  1.00  0.00    -0.008 C 
ATOM     12  C   UNL     1      86.563  52.089  45.508  1.00  0.00     0.005 C 
ATOM     13  C   UNL     1      86.338  50.572  45.723  1.00  0.00     0.006 C 
ATOM     14  C   UNL     1      86.947  49.665  44.656  1.00  0.00     0.012 C 
ATOM     15  C   UNL     1      88.268  50.182  44.033  1.00  0.00    -0.007 C 
ATOM     16  C   UNL     1      88.073  51.618  43.510  1.00  0.00    -0.062 C 
ATOM     17  C   UNL     1      88.978  52.095  42.632  1.00  0.00    -0.025 C 
ATOM     18  C   UNL     1      90.098  51.257  42.105  1.00  0.00     0.046 C 
ATOM     19  C   UNL     1      89.642  49.822  41.762  1.00  0.00     0.075 C 
ATOM     20  C   UNL     1      88.667  49.205  42.840  1.00  0.00     0.017 C 
ATOM     21  C   UNL     1      89.151  47.814  43.334  1.00  0.00     0.012 C 
ATOM     22  C   UNL     1      89.550  46.840  42.202  1.00  0.00    -0.035 C 
ATOM     23  C   UNL     1      90.178  45.584  42.843  1.00  0.00     0.011 C 
ATOM     24  C   UNL     1      88.304  46.380  41.418  1.00  0.00     0.011 C 
ATOM     25  C   UNL     1      90.570  47.487  41.238  1.00  0.00     0.007 C 
ATOM     26  C   UNL     1      90.900  48.940  41.584  1.00  0.00     0.020 C 
ATOM     27  C   UNL     1      89.358  50.187  45.137  1.00  0.00     0.016 C 
ATOM     28  C   UNL     1      85.683  52.166  43.048  1.00  0.00     0.016 C 
ATOM     29  C   UNL     1      84.085  52.802  45.749  1.00  0.00     0.012 C 
ENDROOT
BRANCH   1  30
ATOM     30  O   UNL     1      83.355  54.559  48.323  1.00  0.00    -0.462 OA
BRANCH  30  31
ATOM     31  C   UNL     1      83.011  53.481  49.077  1.00  0.00     0.302 C 
ATOM     32  O   UNL     1      83.518  53.159  50.141  1.00  0.00    -0.253 OA
ATOM     33  C   UNL     1      81.904  52.727  48.406  1.00  0.00     0.139 C 
ENDBRANCH  30  31
ENDBRANCH   1  30
BRANCH  19  34
ATOM     34  C   UNL     1      88.908  49.942  40.410  1.00  0.00     0.310 C 
ATOM     35  O   UNL     1      89.300  50.491  39.393  1.00  0.00    -0.252 OA
BRANCH  34  36
ATOM     36  O   UNL     1      87.711  49.317  40.385  1.00  0.00    -0.481 OA
ATOM     37  H   UNL     1      87.907  48.437  40.768  1.00  0.00     0.296 HD
ENDBRANCH  34  36
ENDBRANCH  19  34
TORSDOF 4
ENDMDL
