MODEL 1
REMARK VINA RESULT:    -7.296      0.000      0.000
REMARK INTER + INTRA:          -8.055
REMARK INTER:                  -7.757
REMARK INTRA:                  -0.298
REMARK UNBOUND:                 0.520
REMARK SMILES CC1(C)CC[C@]2(C(=O)O)CC[C@]3(C)C(=CC[C@@H]4[C@@]5(C)C[C@@H](O)[C@H](O)C(C)(C)[C@@H]5CC[C@]43C)[C@@H]2[C@@H]1O
REMARK SMILES IDX 21 1 20 2 18 3 19 4 28 5 25 6 23 7 26 8 27 9 29 10 30 11
REMARK SMILES IDX 31 12 17 13 16 14 15 15 14 16 12 17 13 18 11 19 10 20 6 21
REMARK SMILES IDX 33 22 34 23 2 24 1 25 3 26 4 27 5 28 32 29 22 30 24 32 7 34
REMARK SMILES IDX 8 35 9 36 35 38
REMARK H PARENT 22 31 24 33 9 37 35 39
ROOT
ATOM      1  C   UNL     1      85.430  44.521  42.338  1.00  0.00     0.144 C 
ATOM      2  C   UNL     1      85.091  46.008  42.284  1.00  0.00     0.042 C 
ATOM      3  C   UNL     1      85.992  46.900  43.189  1.00  0.00    -0.023 C 
ATOM      4  C   UNL     1      85.616  46.598  44.662  1.00  0.00     0.012 C 
ATOM      5  C   UNL     1      87.496  46.567  42.858  1.00  0.00     0.004 C 
ATOM      6  C   UNL     1      87.902  45.045  42.898  1.00  0.00    -0.003 C 
ATOM      7  C   UNL     1      86.904  44.249  42.006  1.00  0.00     0.149 C 
ATOM      8  C   UNL     1      89.319  44.872  42.283  1.00  0.00     0.014 C 
ATOM      9  C   UNL     1      87.982  44.455  44.319  1.00  0.00     0.014 C 
ATOM     10  C   UNL     1      88.442  47.518  43.622  1.00  0.00     0.005 C 
ATOM     11  C   UNL     1      88.218  48.970  43.190  1.00  0.00     0.008 C 
ATOM     12  C   UNL     1      86.764  49.490  43.363  1.00  0.00    -0.020 C 
ATOM     13  C   UNL     1      85.750  48.426  42.792  1.00  0.00     0.006 C 
ATOM     14  C   UNL     1      84.291  48.905  42.951  1.00  0.00     0.032 C 
ATOM     15  C   UNL     1      84.087  50.381  42.788  1.00  0.00    -0.026 C 
ATOM     16  C   UNL     1      85.054  51.310  42.620  1.00  0.00    -0.061 C 
ATOM     17  C   UNL     1      86.537  50.903  42.563  1.00  0.00    -0.006 C 
ATOM     18  C   UNL     1      86.906  50.769  41.055  1.00  0.00     0.017 C 
ATOM     19  C   UNL     1      87.445  52.016  43.159  1.00  0.00     0.013 C 
ATOM     20  C   UNL     1      87.102  53.432  42.697  1.00  0.00     0.020 C 
ATOM     21  C   UNL     1      85.657  53.828  43.070  1.00  0.00     0.077 C 
ATOM     22  C   UNL     1      84.627  52.785  42.534  1.00  0.00     0.062 C 
ATOM     23  C   UNL     1      84.057  53.192  41.143  1.00  0.00     0.128 C 
ATOM     24  C   UNL     1      83.251  54.531  41.236  1.00  0.00    -0.009 C 
ATOM     25  C   UNL     1      81.795  54.227  41.652  1.00  0.00     0.014 C 
ATOM     26  C   UNL     1      83.196  55.248  39.871  1.00  0.00     0.014 C 
ATOM     27  C   UNL     1      83.870  55.490  42.291  1.00  0.00     0.010 C 
ATOM     28  C   UNL     1      85.365  55.250  42.509  1.00  0.00     0.020 C 
ATOM     29  C   UNL     1      86.537  49.712  44.891  1.00  0.00     0.012 C 
ENDROOT
BRANCH   1  30
ATOM     30  O   UNL     1      84.614  43.837  41.376  1.00  0.00    -0.390 OA
ATOM     31  H   UNL     1      84.732  42.889  41.585  1.00  0.00     0.211 HD
ENDBRANCH   1  30
BRANCH   7  32
ATOM     32  O   UNL     1      87.097  42.829  42.109  1.00  0.00    -0.390 OA
ATOM     33  H   UNL     1      86.237  42.403  41.948  1.00  0.00     0.211 HD
ENDBRANCH   7  32
BRANCH  21  34
ATOM     34  C   UNL     1      85.507  53.934  44.596  1.00  0.00     0.310 C 
ATOM     35  O   UNL     1      84.668  53.389  45.295  1.00  0.00    -0.252 OA
BRANCH  34  36
ATOM     36  O   UNL     1      86.374  54.792  45.174  1.00  0.00    -0.481 OA
ATOM     37  H   UNL     1      86.206  55.638  44.710  1.00  0.00     0.296 HD
ENDBRANCH  34  36
ENDBRANCH  21  34
BRANCH  23  38
ATOM     38  O   UNL     1      85.126  53.334  40.207  1.00  0.00    -0.392 OA
ATOM     39  H   UNL     1      85.227  52.481  39.750  1.00  0.00     0.211 HD
ENDBRANCH  23  38
TORSDOF 5
ENDMDL
MODEL 2
REMARK VINA RESULT:    -7.157      2.406      4.559
REMARK INTER + INTRA:          -7.892
REMARK INTER:                  -7.618
REMARK INTRA:                  -0.274
REMARK UNBOUND:                 0.520
REMARK SMILES CC1(C)CC[C@]2(C(=O)O)CC[C@]3(C)C(=CC[C@@H]4[C@@]5(C)C[C@@H](O)[C@H](O)C(C)(C)[C@@H]5CC[C@]43C)[C@@H]2[C@@H]1O
REMARK SMILES IDX 21 1 20 2 18 3 19 4 28 5 25 6 23 7 26 8 27 9 29 10 30 11
REMARK SMILES IDX 31 12 17 13 16 14 15 15 14 16 12 17 13 18 11 19 10 20 6 21
REMARK SMILES IDX 33 22 34 23 2 24 1 25 3 26 4 27 5 28 32 29 22 30 24 32 7 34
REMARK SMILES IDX 8 35 9 36 35 38
REMARK H PARENT 22 31 24 33 9 37 35 39
ROOT
ATOM      1  C   UNL     1      91.229  48.621  43.072  1.00  0.00     0.144 C 
ATOM      2  C   UNL     1      90.333  49.853  43.170  1.00  0.00     0.042 C 
ATOM      3  C   UNL     1      89.106  49.826  42.212  1.00  0.00    -0.023 C 
ATOM      4  C   UNL     1      89.639  50.003  40.767  1.00  0.00     0.012 C 
ATOM      5  C   UNL     1      88.350  48.460  42.426  1.00  0.00     0.004 C 
ATOM      6  C   UNL     1      89.227  47.154  42.336  1.00  0.00    -0.003 C 
ATOM      7  C   UNL     1      90.448  47.317  43.289  1.00  0.00     0.149 C 
ATOM      8  C   UNL     1      88.398  45.940  42.842  1.00  0.00     0.014 C 
ATOM      9  C   UNL     1      89.673  46.796  40.905  1.00  0.00     0.014 C 
ATOM     10  C   UNL     1      87.043  48.430  41.606  1.00  0.00     0.005 C 
ATOM     11  C   UNL     1      86.084  49.528  42.073  1.00  0.00     0.008 C 
ATOM     12  C   UNL     1      86.659  50.971  42.015  1.00  0.00    -0.020 C 
ATOM     13  C   UNL     1      88.103  50.990  42.645  1.00  0.00     0.006 C 
ATOM     14  C   UNL     1      88.712  52.408  42.602  1.00  0.00     0.032 C 
ATOM     15  C   UNL     1      87.732  53.525  42.799  1.00  0.00    -0.026 C 
ATOM     16  C   UNL     1      86.391  53.404  42.907  1.00  0.00    -0.061 C 
ATOM     17  C   UNL     1      85.717  52.022  42.848  1.00  0.00    -0.006 C 
ATOM     18  C   UNL     1      85.515  51.561  44.322  1.00  0.00     0.017 C 
ATOM     19  C   UNL     1      84.305  52.116  42.201  1.00  0.00     0.013 C 
ATOM     20  C   UNL     1      83.451  53.279  42.705  1.00  0.00     0.020 C 
ATOM     21  C   UNL     1      84.120  54.645  42.446  1.00  0.00     0.077 C 
ATOM     22  C   UNL     1      85.561  54.693  43.044  1.00  0.00     0.062 C 
ATOM     23  C   UNL     1      85.577  55.298  44.478  1.00  0.00     0.128 C 
ATOM     24  C   UNL     1      85.107  56.791  44.463  1.00  0.00    -0.009 C 
ATOM     25  C   UNL     1      86.312  57.707  44.152  1.00  0.00     0.014 C 
ATOM     26  C   UNL     1      84.552  57.218  45.837  1.00  0.00     0.014 C 
ATOM     27  C   UNL     1      84.020  57.029  43.378  1.00  0.00     0.010 C 
ATOM     28  C   UNL     1      83.224  55.767  43.046  1.00  0.00     0.020 C 
ATOM     29  C   UNL     1      86.702  51.386  40.511  1.00  0.00     0.012 C 
ENDROOT
BRANCH   1  30
ATOM     30  O   UNL     1      92.243  48.718  44.082  1.00  0.00    -0.390 OA
ATOM     31  H   UNL     1      92.981  49.186  43.643  1.00  0.00     0.211 HD
ENDBRANCH   1  30
BRANCH   7  32
ATOM     32  O   UNL     1      91.390  46.242  43.154  1.00  0.00    -0.390 OA
ATOM     33  H   UNL     1      91.422  45.771  44.005  1.00  0.00     0.211 HD
ENDBRANCH   7  32
BRANCH  21  34
ATOM     34  C   UNL     1      84.199  54.925  40.937  1.00  0.00     0.310 C 
ATOM     35  O   UNL     1      85.141  55.401  40.322  1.00  0.00    -0.252 OA
BRANCH  34  36
ATOM     36  O   UNL     1      83.054  54.670  40.271  1.00  0.00    -0.481 OA
ATOM     37  H   UNL     1      82.628  55.550  40.198  1.00  0.00     0.296 HD
ENDBRANCH  34  36
ENDBRANCH  21  34
BRANCH  23  38
ATOM     38  O   UNL     1      84.729  54.532  45.334  1.00  0.00    -0.392 OA
ATOM     39  H   UNL     1      83.818  54.636  45.010  1.00  0.00     0.211 HD
ENDBRANCH  23  38
TORSDOF 5
ENDMDL
MODEL 3
REMARK VINA RESULT:    -6.564      2.718      8.676
REMARK INTER + INTRA:          -7.195
REMARK INTER:                  -7.207
REMARK INTRA:                   0.012
REMARK UNBOUND:                 0.520
REMARK SMILES CC1(C)CC[C@]2(C(=O)O)CC[C@]3(C)C(=CC[C@@H]4[C@@]5(C)C[C@@H](O)[C@H](O)C(C)(C)[C@@H]5CC[C@]43C)[C@@H]2[C@@H]1O
REMARK SMILES IDX 21 1 20 2 18 3 19 4 28 5 25 6 23 7 26 8 27 9 29 10 30 11
REMARK SMILES IDX 31 12 17 13 16 14 15 15 14 16 12 17 13 18 11 19 10 20 6 21
REMARK SMILES IDX 33 22 34 23 2 24 1 25 3 26 4 27 5 28 32 29 22 30 24 32 7 34
REMARK SMILES IDX 8 35 9 36 35 38
REMARK H PARENT 22 31 24 33 9 37 35 39
ROOT
ATOM      1  C   UNL     1      82.985  56.606  45.996  1.00  0.00     0.144 C 
ATOM      2  C   UNL     1      83.301  55.191  45.518  1.00  0.00     0.042 C 
ATOM      3  C   UNL     1      84.661  55.061  44.769  1.00  0.00    -0.023 C 
ATOM      4  C   UNL     1      84.508  55.773  43.401  1.00  0.00     0.012 C 
ATOM      5  C   UNL     1      85.779  55.702  45.674  1.00  0.00     0.004 C 
ATOM      6  C   UNL     1      85.504  57.163  46.198  1.00  0.00    -0.003 C 
ATOM      7  C   UNL     1      84.102  57.185  46.875  1.00  0.00     0.149 C 
ATOM      8  C   UNL     1      86.554  57.529  47.285  1.00  0.00     0.014 C 
ATOM      9  C   UNL     1      85.622  58.250  45.112  1.00  0.00     0.014 C 
ATOM     10  C   UNL     1      87.173  55.481  45.051  1.00  0.00     0.005 C 
ATOM     11  C   UNL     1      87.497  53.987  44.962  1.00  0.00     0.008 C 
ATOM     12  C   UNL     1      86.470  53.138  44.164  1.00  0.00    -0.020 C 
ATOM     13  C   UNL     1      85.007  53.511  44.621  1.00  0.00     0.006 C 
ATOM     14  C   UNL     1      83.954  52.690  43.846  1.00  0.00     0.032 C 
ATOM     15  C   UNL     1      84.362  51.287  43.515  1.00  0.00    -0.026 C 
ATOM     16  C   UNL     1      85.572  50.729  43.742  1.00  0.00    -0.061 C 
ATOM     17  C   UNL     1      86.697  51.535  44.415  1.00  0.00    -0.006 C 
ATOM     18  C   UNL     1      86.652  51.183  45.932  1.00  0.00     0.017 C 
ATOM     19  C   UNL     1      88.092  51.096  43.885  1.00  0.00     0.013 C 
ATOM     20  C   UNL     1      88.289  49.583  43.791  1.00  0.00     0.020 C 
ATOM     21  C   UNL     1      87.259  48.922  42.851  1.00  0.00     0.077 C 
ATOM     22  C   UNL     1      85.799  49.284  43.266  1.00  0.00     0.062 C 
ATOM     23  C   UNL     1      85.177  48.210  44.206  1.00  0.00     0.128 C 
ATOM     24  C   UNL     1      85.049  46.831  43.477  1.00  0.00    -0.009 C 
ATOM     25  C   UNL     1      83.723  46.788  42.686  1.00  0.00     0.014 C 
ATOM     26  C   UNL     1      85.018  45.664  44.486  1.00  0.00     0.014 C 
ATOM     27  C   UNL     1      86.220  46.610  42.478  1.00  0.00     0.010 C 
ATOM     28  C   UNL     1      87.483  47.382  42.862  1.00  0.00     0.020 C 
ATOM     29  C   UNL     1      86.681  53.467  42.653  1.00  0.00     0.012 C 
ENDROOT
BRANCH   1  30
ATOM     30  O   UNL     1      81.776  56.562  46.767  1.00  0.00    -0.390 OA
ATOM     31  H   UNL     1      81.541  57.501  46.908  1.00  0.00     0.211 HD
ENDBRANCH   1  30
BRANCH   7  32
ATOM     32  O   UNL     1      83.696  58.513  47.241  1.00  0.00    -0.390 OA
ATOM     33  H   UNL     1      84.310  59.136  46.813  1.00  0.00     0.211 HD
ENDBRANCH   7  32
BRANCH  21  34
ATOM     34  C   UNL     1      87.490  49.374  41.400  1.00  0.00     0.310 C 
ATOM     35  O   UNL     1      87.095  50.403  40.876  1.00  0.00    -0.252 OA
BRANCH  34  36
ATOM     36  O   UNL     1      88.143  48.470  40.641  1.00  0.00    -0.481 OA
ATOM     37  H   UNL     1      87.646  48.476  39.796  1.00  0.00     0.296 HD
ENDBRANCH  34  36
ENDBRANCH  21  34
BRANCH  23  38
ATOM     38  O   UNL     1      85.985  48.067  45.375  1.00  0.00    -0.392 OA
ATOM     39  H   UNL     1      86.376  48.937  45.566  1.00  0.00     0.211 HD
ENDBRANCH  23  38
TORSDOF 5
ENDMDL
MODEL 4
REMARK VINA RESULT:    -5.711      2.669      8.809
REMARK INTER + INTRA:          -6.192
REMARK INTER:                  -6.017
REMARK INTRA:                  -0.175
REMARK UNBOUND:                 0.520
REMARK SMILES CC1(C)CC[C@]2(C(=O)O)CC[C@]3(C)C(=CC[C@@H]4[C@@]5(C)C[C@@H](O)[C@H](O)C(C)(C)[C@@H]5CC[C@]43C)[C@@H]2[C@@H]1O
REMARK SMILES IDX 21 1 20 2 18 3 19 4 28 5 25 6 23 7 26 8 27 9 29 10 30 11
REMARK SMILES IDX 31 12 17 13 16 14 15 15 14 16 12 17 13 18 11 19 10 20 6 21
REMARK SMILES IDX 33 22 34 23 2 24 1 25 3 26 4 27 5 28 32 29 22 30 24 32 7 34
REMARK SMILES IDX 8 35 9 36 35 38
REMARK H PARENT 22 31 24 33 9 37 35 39
ROOT
ATOM      1  C   UNL     1      86.127  56.350  47.244  1.00  0.00     0.144 C 
ATOM      2  C   UNL     1      86.720  55.079  46.642  1.00  0.00     0.042 C 
ATOM      3  C   UNL     1      85.718  54.256  45.778  1.00  0.00    -0.023 C 
ATOM      4  C   UNL     1      84.677  53.630  46.740  1.00  0.00     0.012 C 
ATOM      5  C   UNL     1      85.071  55.231  44.722  1.00  0.00     0.004 C 
ATOM      6  C   UNL     1      84.444  56.561  45.289  1.00  0.00    -0.003 C 
ATOM      7  C   UNL     1      85.512  57.266  46.177  1.00  0.00     0.149 C 
ATOM      8  C   UNL     1      84.111  57.518  44.110  1.00  0.00     0.014 C 
ATOM      9  C   UNL     1      83.123  56.354  46.054  1.00  0.00     0.014 C 
ATOM     10  C   UNL     1      84.173  54.448  43.742  1.00  0.00     0.005 C 
ATOM     11  C   UNL     1      84.995  53.434  42.942  1.00  0.00     0.008 C 
ATOM     12  C   UNL     1      85.786  52.408  43.799  1.00  0.00    -0.020 C 
ATOM     13  C   UNL     1      86.541  53.159  44.962  1.00  0.00     0.006 C 
ATOM     14  C   UNL     1      87.337  52.171  45.841  1.00  0.00     0.032 C 
ATOM     15  C   UNL     1      87.939  51.012  45.106  1.00  0.00    -0.026 C 
ATOM     16  C   UNL     1      87.766  50.715  43.800  1.00  0.00    -0.061 C 
ATOM     17  C   UNL     1      86.895  51.605  42.897  1.00  0.00    -0.006 C 
ATOM     18  C   UNL     1      87.861  52.590  42.174  1.00  0.00     0.017 C 
ATOM     19  C   UNL     1      86.190  50.763  41.795  1.00  0.00     0.013 C 
ATOM     20  C   UNL     1      87.093  49.748  41.095  1.00  0.00     0.020 C 
ATOM     21  C   UNL     1      87.690  48.725  42.084  1.00  0.00     0.077 C 
ATOM     22  C   UNL     1      88.431  49.437  43.259  1.00  0.00     0.062 C 
ATOM     23  C   UNL     1      89.954  49.594  42.975  1.00  0.00     0.128 C 
ATOM     24  C   UNL     1      90.651  48.198  42.858  1.00  0.00    -0.009 C 
ATOM     25  C   UNL     1      91.048  47.701  44.266  1.00  0.00     0.014 C 
ATOM     26  C   UNL     1      91.946  48.286  42.023  1.00  0.00     0.014 C 
ATOM     27  C   UNL     1      89.703  47.146  42.218  1.00  0.00     0.010 C 
ATOM     28  C   UNL     1      88.646  47.773  41.308  1.00  0.00     0.020 C 
ATOM     29  C   UNL     1      84.747  51.395  44.374  1.00  0.00     0.012 C 
ENDROOT
BRANCH   1  30
ATOM     30  O   UNL     1      87.177  57.067  47.909  1.00  0.00    -0.390 OA
ATOM     31  H   UNL     1      86.711  57.679  48.513  1.00  0.00     0.211 HD
ENDBRANCH   1  30
BRANCH   7  32
ATOM     32  O   UNL     1      84.977  58.406  46.868  1.00  0.00    -0.390 OA
ATOM     33  H   UNL     1      84.219  58.733  46.351  1.00  0.00     0.211 HD
ENDBRANCH   7  32
BRANCH  21  34
ATOM     34  C   UNL     1      86.581  47.833  42.665  1.00  0.00     0.310 C 
ATOM     35  O   UNL     1      86.002  47.974  43.731  1.00  0.00    -0.252 OA
BRANCH  34  36
ATOM     36  O   UNL     1      86.301  46.746  41.915  1.00  0.00    -0.481 OA
ATOM     37  H   UNL     1      86.356  46.005  42.553  1.00  0.00     0.296 HD
ENDBRANCH  34  36
ENDBRANCH  21  34
BRANCH  23  38
ATOM     38  O   UNL     1      90.146  50.335  41.770  1.00  0.00    -0.392 OA
ATOM     39  H   UNL     1      89.265  50.542  41.413  1.00  0.00     0.211 HD
ENDBRANCH  23  38
TORSDOF 5
ENDMDL
MODEL 5
REMARK VINA RESULT:    -5.228      2.106      8.584
REMARK INTER + INTRA:          -5.625
REMARK INTER:                  -6.156
REMARK INTRA:                   0.531
REMARK UNBOUND:                 0.520
REMARK SMILES CC1(C)CC[C@]2(C(=O)O)CC[C@]3(C)C(=CC[C@@H]4[C@@]5(C)C[C@@H](O)[C@H](O)C(C)(C)[C@@H]5CC[C@]43C)[C@@H]2[C@@H]1O
REMARK SMILES IDX 21 1 20 2 18 3 19 4 28 5 25 6 23 7 26 8 27 9 29 10 30 11
REMARK SMILES IDX 31 12 17 13 16 14 15 15 14 16 12 17 13 18 11 19 10 20 6 21
REMARK SMILES IDX 33 22 34 23 2 24 1 25 3 26 4 27 5 28 32 29 22 30 24 32 7 34
REMARK SMILES IDX 8 35 9 36 35 38
REMARK H PARENT 22 31 24 33 9 37 35 39
ROOT
ATOM      1  C   UNL     1      86.749  56.099  44.497  1.00  0.00     0.144 C 
ATOM      2  C   UNL     1      87.170  54.648  44.283  1.00  0.00     0.042 C 
ATOM      3  C   UNL     1      86.001  53.623  44.391  1.00  0.00    -0.023 C 
ATOM      4  C   UNL     1      85.578  53.557  45.880  1.00  0.00     0.012 C 
ATOM      5  C   UNL     1      84.840  54.107  43.442  1.00  0.00     0.004 C 
ATOM      6  C   UNL     1      84.367  55.599  43.620  1.00  0.00    -0.003 C 
ATOM      7  C   UNL     1      85.619  56.522  43.550  1.00  0.00     0.149 C 
ATOM      8  C   UNL     1      83.432  55.988  42.440  1.00  0.00     0.014 C 
ATOM      9  C   UNL     1      83.553  55.850  44.905  1.00  0.00     0.014 C 
ATOM     10  C   UNL     1      83.707  53.060  43.397  1.00  0.00     0.005 C 
ATOM     11  C   UNL     1      84.213  51.737  42.816  1.00  0.00     0.008 C 
ATOM     12  C   UNL     1      85.421  51.110  43.564  1.00  0.00    -0.020 C 
ATOM     13  C   UNL     1      86.510  52.218  43.832  1.00  0.00     0.006 C 
ATOM     14  C   UNL     1      87.728  51.635  44.580  1.00  0.00     0.032 C 
ATOM     15  C   UNL     1      88.085  50.227  44.210  1.00  0.00    -0.026 C 
ATOM     16  C   UNL     1      87.393  49.418  43.378  1.00  0.00    -0.061 C 
ATOM     17  C   UNL     1      86.110  49.909  42.686  1.00  0.00    -0.006 C 
ATOM     18  C   UNL     1      86.528  50.407  41.270  1.00  0.00     0.017 C 
ATOM     19  C   UNL     1      85.103  48.741  42.481  1.00  0.00     0.013 C 
ATOM     20  C   UNL     1      85.725  47.453  41.943  1.00  0.00     0.020 C 
ATOM     21  C   UNL     1      86.818  46.901  42.883  1.00  0.00     0.077 C 
ATOM     22  C   UNL     1      87.905  47.980  43.182  1.00  0.00     0.062 C 
ATOM     23  C   UNL     1      89.115  47.873  42.208  1.00  0.00     0.128 C 
ATOM     24  C   UNL     1      89.857  46.506  42.382  1.00  0.00    -0.009 C 
ATOM     25  C   UNL     1      90.892  46.623  43.523  1.00  0.00     0.014 C 
ATOM     26  C   UNL     1      90.630  46.121  41.103  1.00  0.00     0.014 C 
ATOM     27  C   UNL     1      88.864  45.366  42.740  1.00  0.00     0.010 C 
ATOM     28  C   UNL     1      87.445  45.633  42.235  1.00  0.00     0.020 C 
ATOM     29  C   UNL     1      84.876  50.530  44.907  1.00  0.00     0.012 C 
ENDROOT
BRANCH   1  30
ATOM     30  O   UNL     1      87.886  56.939  44.253  1.00  0.00    -0.390 OA
ATOM     31  H   UNL     1      87.818  57.645  44.927  1.00  0.00     0.211 HD
ENDBRANCH   1  30
BRANCH   7  32
ATOM     32  O   UNL     1      85.305  57.888  43.862  1.00  0.00    -0.390 OA
ATOM     33  H   UNL     1      86.021  58.443  43.507  1.00  0.00     0.211 HD
ENDBRANCH   7  32
BRANCH  21  34
ATOM     34  C   UNL     1      86.199  46.438  44.211  1.00  0.00     0.310 C 
ATOM     35  O   UNL     1      85.951  45.291  44.550  1.00  0.00    -0.252 OA
BRANCH  34  36
ATOM     36  O   UNL     1      85.840  47.448  45.031  1.00  0.00    -0.481 OA
ATOM     37  H   UNL     1      86.162  47.157  45.910  1.00  0.00     0.296 HD
ENDBRANCH  34  36
ENDBRANCH  21  34
BRANCH  23  38
ATOM     38  O   UNL     1      88.663  48.011  40.861  1.00  0.00    -0.392 OA
ATOM     39  H   UNL     1      89.448  47.998  40.287  1.00  0.00     0.211 HD
ENDBRANCH  23  38
TORSDOF 5
ENDMDL
MODEL 6
REMARK VINA RESULT:    -5.109      1.976      4.014
REMARK INTER + INTRA:          -5.485
REMARK INTER:                  -5.261
REMARK INTRA:                  -0.224
REMARK UNBOUND:                 0.520
REMARK SMILES CC1(C)CC[C@]2(C(=O)O)CC[C@]3(C)C(=CC[C@@H]4[C@@]5(C)C[C@@H](O)[C@H](O)C(C)(C)[C@@H]5CC[C@]43C)[C@@H]2[C@@H]1O
REMARK SMILES IDX 21 1 20 2 18 3 19 4 28 5 25 6 23 7 26 8 27 9 29 10 30 11
REMARK SMILES IDX 31 12 17 13 16 14 15 15 14 16 12 17 13 18 11 19 10 20 6 21
REMARK SMILES IDX 33 22 34 23 2 24 1 25 3 26 4 27 5 28 32 29 22 30 24 32 7 34
REMARK SMILES IDX 8 35 9 36 35 38
REMARK H PARENT 22 31 24 33 9 37 35 39
ROOT
ATOM      1  C   UNL     1      90.342  46.520  43.047  1.00  0.00     0.144 C 
ATOM      2  C   UNL     1      89.744  47.906  43.275  1.00  0.00     0.042 C 
ATOM      3  C   UNL     1      88.315  48.088  42.683  1.00  0.00    -0.023 C 
ATOM      4  C   UNL     1      88.449  48.111  41.139  1.00  0.00     0.012 C 
ATOM      5  C   UNL     1      87.417  46.903  43.204  1.00  0.00     0.004 C 
ATOM      6  C   UNL     1      87.987  45.449  42.996  1.00  0.00    -0.003 C 
ATOM      7  C   UNL     1      89.433  45.402  43.573  1.00  0.00     0.149 C 
ATOM      8  C   UNL     1      87.127  44.436  43.804  1.00  0.00     0.014 C 
ATOM      9  C   UNL     1      87.948  44.965  41.533  1.00  0.00     0.014 C 
ATOM     10  C   UNL     1      85.950  47.102  42.767  1.00  0.00     0.005 C 
ATOM     11  C   UNL     1      85.370  48.381  43.378  1.00  0.00     0.008 C 
ATOM     12  C   UNL     1      86.154  49.681  43.048  1.00  0.00    -0.020 C 
ATOM     13  C   UNL     1      87.696  49.438  43.268  1.00  0.00     0.006 C 
ATOM     14  C   UNL     1      88.512  50.708  42.945  1.00  0.00     0.032 C 
ATOM     15  C   UNL     1      87.841  52.000  43.300  1.00  0.00    -0.026 C 
ATOM     16  C   UNL     1      86.583  52.147  43.770  1.00  0.00    -0.061 C 
ATOM     17  C   UNL     1      85.683  50.922  44.010  1.00  0.00    -0.006 C 
ATOM     18  C   UNL     1      85.818  50.556  45.518  1.00  0.00     0.017 C 
ATOM     19  C   UNL     1      84.188  51.268  43.755  1.00  0.00     0.013 C 
ATOM     20  C   UNL     1      83.728  52.590  44.369  1.00  0.00     0.020 C 
ATOM     21  C   UNL     1      84.533  53.791  43.826  1.00  0.00     0.077 C 
ATOM     22  C   UNL     1      86.067  53.576  44.013  1.00  0.00     0.062 C 
ATOM     23  C   UNL     1      86.588  54.213  45.336  1.00  0.00     0.128 C 
ATOM     24  C   UNL     1      86.406  55.768  45.320  1.00  0.00    -0.009 C 
ATOM     25  C   UNL     1      87.621  56.420  44.624  1.00  0.00     0.014 C 
ATOM     26  C   UNL     1      86.339  56.339  46.752  1.00  0.00     0.014 C 
ATOM     27  C   UNL     1      85.122  56.178  44.547  1.00  0.00     0.010 C 
ATOM     28  C   UNL     1      84.053  55.084  44.546  1.00  0.00     0.020 C 
ATOM     29  C   UNL     1      85.853  50.030  41.557  1.00  0.00     0.012 C 
ENDROOT
BRANCH   1  30
ATOM     30  O   UNL     1      91.596  46.451  43.739  1.00  0.00    -0.390 OA
ATOM     31  H   UNL     1      91.614  45.551  44.124  1.00  0.00     0.211 HD
ENDBRANCH   1  30
BRANCH   7  32
ATOM     32  O   UNL     1      90.093  44.160  43.283  1.00  0.00    -0.390 OA
ATOM     33  H   UNL     1      91.035  44.355  43.136  1.00  0.00     0.211 HD
ENDBRANCH   7  32
BRANCH  21  34
ATOM     34  C   UNL     1      84.239  54.002  42.333  1.00  0.00     0.310 C 
ATOM     35  O   UNL     1      83.177  53.826  41.757  1.00  0.00    -0.252 OA
BRANCH  34  36
ATOM     36  O   UNL     1      85.321  54.349  41.604  1.00  0.00    -0.481 OA
ATOM     37  H   UNL     1      85.309  55.329  41.626  1.00  0.00     0.296 HD
ENDBRANCH  34  36
ENDBRANCH  21  34
BRANCH  23  38
ATOM     38  O   UNL     1      85.887  53.654  46.448  1.00  0.00    -0.392 OA
ATOM     39  H   UNL     1      85.465  52.833  46.143  1.00  0.00     0.211 HD
ENDBRANCH  23  38
TORSDOF 5
ENDMDL
