MODEL 1
REMARK VINA RESULT:    -7.489      0.000      0.000
REMARK INTER + INTRA:          -8.299
REMARK INTER:                  -7.864
REMARK INTRA:                  -0.435
REMARK UNBOUND:                 0.066
REMARK SMILES CC(=O)OC1CCC2(C)C(CCC3(C)C2CC=C2C4CC(C)(C)CCC4(C)CCC23C)C1(C)C
REMARK SMILES IDX 4 1 2 2 3 3 1 4 5 5 6 6 32 7 7 8 10 9 8 10 11 11 15 12 12 13
REMARK SMILES IDX 13 14 16 15 30 16 17 17 18 18 29 19 19 20 28 21 26 22 20 23
REMARK SMILES IDX 25 24 21 25 24 26 33 27 34 28 9 29 14 30 31 31 27 32 22 33
REMARK SMILES IDX 23 34
REMARK H PARENT
ROOT
ATOM      1  O   UNL     1      84.956  55.875  46.636  1.00  0.00    -0.462 OA
ENDROOT
BRANCH   1   2
ATOM      2  C   UNL     1      84.122  56.947  46.541  1.00  0.00     0.302 C 
ATOM      3  O   UNL     1      82.945  56.975  46.866  1.00  0.00    -0.253 OA
ATOM      4  C   UNL     1      84.865  58.113  45.965  1.00  0.00     0.139 C 
ENDBRANCH   1   2
BRANCH   1   5
ATOM      5  C   UNL     1      84.917  54.904  45.564  1.00  0.00     0.182 C 
ATOM      6  C   UNL     1      84.260  53.644  46.137  1.00  0.00     0.046 C 
ATOM      7  C   UNL     1      86.353  54.614  45.002  1.00  0.00     0.005 C 
ATOM      8  C   UNL     1      84.110  52.485  45.137  1.00  0.00     0.011 C 
ATOM      9  C   UNL     1      86.460  53.111  44.542  1.00  0.00     0.005 C 
ATOM     10  C   UNL     1      85.150  52.476  43.978  1.00  0.00    -0.025 C 
ATOM     11  C   UNL     1      87.651  52.756  43.655  1.00  0.00     0.005 C 
ATOM     12  C   UNL     1      85.439  51.034  43.352  1.00  0.00     0.006 C 
ATOM     13  C   UNL     1      87.977  51.263  43.775  1.00  0.00     0.008 C 
ATOM     14  C   UNL     1      86.744  50.292  43.806  1.00  0.00    -0.020 C 
ATOM     15  C   UNL     1      84.224  50.087  43.382  1.00  0.00     0.032 C 
ATOM     16  C   UNL     1      86.988  49.008  42.824  1.00  0.00    -0.006 C 
ATOM     17  C   UNL     1      84.503  48.696  42.895  1.00  0.00    -0.027 C 
ATOM     18  C   UNL     1      85.713  48.148  42.658  1.00  0.00    -0.064 C 
ATOM     19  C   UNL     1      88.141  48.139  43.393  1.00  0.00     0.012 C 
ATOM     20  C   UNL     1      85.878  46.714  42.086  1.00  0.00     0.022 C 
ATOM     21  C   UNL     1      88.387  46.853  42.615  1.00  0.00     0.008 C 
ATOM     22  C   UNL     1      87.146  45.933  42.583  1.00  0.00    -0.026 C 
ATOM     23  C   UNL     1      84.633  45.782  42.196  1.00  0.00     0.015 C 
ATOM     24  C   UNL     1      86.930  45.276  43.978  1.00  0.00     0.008 C 
ATOM     25  C   UNL     1      84.397  45.147  43.596  1.00  0.00    -0.035 C 
ATOM     26  C   UNL     1      85.540  45.486  44.573  1.00  0.00     0.007 C 
ATOM     27  C   UNL     1      87.419  54.851  46.109  1.00  0.00     0.015 C 
ATOM     28  C   UNL     1      86.679  55.617  43.874  1.00  0.00     0.015 C 
ATOM     29  C   UNL     1      84.543  53.290  42.794  1.00  0.00     0.012 C 
ATOM     30  C   UNL     1      86.563  49.806  45.280  1.00  0.00     0.012 C 
ATOM     31  C   UNL     1      87.381  49.456  41.379  1.00  0.00     0.017 C 
ATOM     32  C   UNL     1      87.501  44.804  41.576  1.00  0.00     0.012 C 
ATOM     33  C   UNL     1      83.069  45.639  44.205  1.00  0.00     0.011 C 
ATOM     34  C   UNL     1      84.273  43.614  43.445  1.00  0.00     0.011 C 
ENDBRANCH   1   5
TORSDOF 2
ENDMDL
MODEL 2
REMARK VINA RESULT:    -7.127      1.728      2.519
REMARK INTER + INTRA:          -7.894
REMARK INTER:                  -8.072
REMARK INTRA:                   0.178
REMARK UNBOUND:                 0.066
REMARK SMILES CC(=O)OC1CCC2(C)C(CCC3(C)C2CC=C2C4CC(C)(C)CCC4(C)CCC23C)C1(C)C
REMARK SMILES IDX 4 1 2 2 3 3 1 4 5 5 6 6 32 7 7 8 10 9 8 10 11 11 15 12 12 13
REMARK SMILES IDX 13 14 16 15 30 16 17 17 18 18 29 19 19 20 28 21 26 22 20 23
REMARK SMILES IDX 25 24 21 25 24 26 33 27 34 28 9 29 14 30 31 31 27 32 22 33
REMARK SMILES IDX 23 34
REMARK H PARENT
ROOT
ATOM      1  O   UNL     1      84.197  54.937  46.608  1.00  0.00    -0.462 OA
ENDROOT
BRANCH   1   2
ATOM      2  C   UNL     1      83.737  54.386  47.764  1.00  0.00     0.302 C 
ATOM      3  O   UNL     1      82.587  54.042  47.990  1.00  0.00    -0.253 OA
ATOM      4  C   UNL     1      84.862  54.262  48.746  1.00  0.00     0.139 C 
ENDBRANCH   1   2
BRANCH   1   5
ATOM      5  C   UNL     1      84.435  54.045  45.493  1.00  0.00     0.182 C 
ATOM      6  C   UNL     1      84.550  52.634  46.078  1.00  0.00     0.046 C 
ATOM      7  C   UNL     1      85.721  54.457  44.694  1.00  0.00     0.005 C 
ATOM      8  C   UNL     1      84.790  51.526  45.039  1.00  0.00     0.011 C 
ATOM      9  C   UNL     1      86.437  53.175  44.125  1.00  0.00     0.005 C 
ATOM     10  C   UNL     1      85.500  51.989  43.733  1.00  0.00    -0.025 C 
ATOM     11  C   UNL     1      87.486  53.408  43.040  1.00  0.00     0.005 C 
ATOM     12  C   UNL     1      86.318  50.843  42.976  1.00  0.00     0.006 C 
ATOM     13  C   UNL     1      88.486  52.247  43.009  1.00  0.00     0.008 C 
ATOM     14  C   UNL     1      87.874  50.811  43.168  1.00  0.00    -0.020 C 
ATOM     15  C   UNL     1      85.710  49.436  43.133  1.00  0.00     0.032 C 
ATOM     16  C   UNL     1      88.518  49.777  42.078  1.00  0.00    -0.006 C 
ATOM     17  C   UNL     1      86.518  48.333  42.518  1.00  0.00    -0.027 C 
ATOM     18  C   UNL     1      87.784  48.415  42.058  1.00  0.00    -0.064 C 
ATOM     19  C   UNL     1      90.021  49.563  42.399  1.00  0.00     0.012 C 
ATOM     20  C   UNL     1      88.499  47.219  41.373  1.00  0.00     0.022 C 
ATOM     21  C   UNL     1      90.702  48.532  41.509  1.00  0.00     0.008 C 
ATOM     22  C   UNL     1      90.049  47.135  41.612  1.00  0.00    -0.026 C 
ATOM     23  C   UNL     1      87.872  45.812  41.616  1.00  0.00     0.015 C 
ATOM     24  C   UNL     1      90.405  46.476  42.978  1.00  0.00     0.008 C 
ATOM     25  C   UNL     1      88.201  45.163  42.990  1.00  0.00    -0.035 C 
ATOM     26  C   UNL     1      89.201  46.017  43.796  1.00  0.00     0.007 C 
ATOM     27  C   UNL     1      86.724  55.186  45.633  1.00  0.00     0.015 C 
ATOM     28  C   UNL     1      85.345  55.477  43.598  1.00  0.00     0.015 C 
ATOM     29  C   UNL     1      84.393  52.402  42.715  1.00  0.00     0.012 C 
ATOM     30  C   UNL     1      88.193  50.320  44.618  1.00  0.00     0.012 C 
ATOM     31  C   UNL     1      88.404  50.334  40.622  1.00  0.00     0.017 C 
ATOM     32  C   UNL     1      90.713  46.291  40.489  1.00  0.00     0.012 C 
ATOM     33  C   UNL     1      86.922  44.982  43.832  1.00  0.00     0.011 C 
ATOM     34  C   UNL     1      88.783  43.750  42.760  1.00  0.00     0.011 C 
ENDBRANCH   1   5
TORSDOF 2
ENDMDL
MODEL 3
REMARK VINA RESULT:    -7.061      3.200      8.774
REMARK INTER + INTRA:          -7.821
REMARK INTER:                  -7.448
REMARK INTRA:                  -0.373
REMARK UNBOUND:                 0.066
REMARK SMILES CC(=O)OC1CCC2(C)C(CCC3(C)C2CC=C2C4CC(C)(C)CCC4(C)CCC23C)C1(C)C
REMARK SMILES IDX 4 1 2 2 3 3 1 4 5 5 6 6 32 7 7 8 10 9 8 10 11 11 15 12 12 13
REMARK SMILES IDX 13 14 16 15 30 16 17 17 18 18 29 19 19 20 28 21 26 22 20 23
REMARK SMILES IDX 25 24 21 25 24 26 33 27 34 28 9 29 14 30 31 31 27 32 22 33
REMARK SMILES IDX 23 34
REMARK H PARENT
ROOT
ATOM      1  O   UNL     1      85.971  45.439  43.675  1.00  0.00    -0.462 OA
ENDROOT
BRANCH   1   2
ATOM      2  C   UNL     1      86.803  44.362  43.665  1.00  0.00     0.302 C 
ATOM      3  O   UNL     1      87.511  43.991  44.589  1.00  0.00    -0.253 OA
ATOM      4  C   UNL     1      86.732  43.682  42.332  1.00  0.00     0.139 C 
ENDBRANCH   1   2
BRANCH   1   5
ATOM      5  C   UNL     1      86.569  46.741  43.881  1.00  0.00     0.182 C 
ATOM      6  C   UNL     1      85.691  47.470  44.903  1.00  0.00     0.046 C 
ATOM      7  C   UNL     1      86.687  47.536  42.534  1.00  0.00     0.005 C 
ATOM      8  C   UNL     1      86.173  48.883  45.273  1.00  0.00     0.011 C 
ATOM      9  C   UNL     1      86.499  49.078  42.799  1.00  0.00     0.005 C 
ATOM     10  C   UNL     1      87.014  49.601  44.177  1.00  0.00    -0.025 C 
ATOM     11  C   UNL     1      86.932  50.018  41.675  1.00  0.00     0.005 C 
ATOM     12  C   UNL     1      86.964  51.197  44.236  1.00  0.00     0.006 C 
ATOM     13  C   UNL     1      86.182  51.351  41.778  1.00  0.00     0.008 C 
ATOM     14  C   UNL     1      86.016  51.933  43.226  1.00  0.00    -0.020 C 
ATOM     15  C   UNL     1      86.805  51.764  45.660  1.00  0.00     0.032 C 
ATOM     16  C   UNL     1      86.357  53.532  43.254  1.00  0.00    -0.006 C 
ATOM     17  C   UNL     1      86.651  53.254  45.727  1.00  0.00    -0.027 C 
ATOM     18  C   UNL     1      86.419  54.091  44.696  1.00  0.00    -0.064 C 
ATOM     19  C   UNL     1      85.285  54.300  42.435  1.00  0.00     0.012 C 
ATOM     20  C   UNL     1      86.348  55.632  44.876  1.00  0.00     0.022 C 
ATOM     21  C   UNL     1      85.441  55.814  42.480  1.00  0.00     0.008 C 
ATOM     22  C   UNL     1      85.353  56.377  43.916  1.00  0.00    -0.026 C 
ATOM     23  C   UNL     1      86.128  56.145  46.332  1.00  0.00     0.015 C 
ATOM     24  C   UNL     1      83.882  56.319  44.425  1.00  0.00     0.008 C 
ATOM     25  C   UNL     1      84.665  56.062  46.854  1.00  0.00    -0.035 C 
ATOM     26  C   UNL     1      83.696  55.590  45.753  1.00  0.00     0.007 C 
ATOM     27  C   UNL     1      85.575  47.083  41.545  1.00  0.00     0.015 C 
ATOM     28  C   UNL     1      88.029  47.199  41.849  1.00  0.00     0.015 C 
ATOM     29  C   UNL     1      88.514  49.258  44.433  1.00  0.00     0.012 C 
ATOM     30  C   UNL     1      84.534  51.699  43.662  1.00  0.00     0.012 C 
ATOM     31  C   UNL     1      87.758  53.832  42.629  1.00  0.00     0.017 C 
ATOM     32  C   UNL     1      85.755  57.873  43.794  1.00  0.00     0.012 C 
ATOM     33  C   UNL     1      84.563  55.091  48.047  1.00  0.00     0.011 C 
ATOM     34  C   UNL     1      84.231  57.450  47.376  1.00  0.00     0.011 C 
ENDBRANCH   1   5
TORSDOF 2
ENDMDL
MODEL 4
REMARK VINA RESULT:    -5.358      1.698      3.943
REMARK INTER + INTRA:          -5.918
REMARK INTER:                  -5.488
REMARK INTRA:                  -0.430
REMARK UNBOUND:                 0.066
REMARK SMILES CC(=O)OC1CCC2(C)C(CCC3(C)C2CC=C2C4CC(C)(C)CCC4(C)CCC23C)C1(C)C
REMARK SMILES IDX 4 1 2 2 3 3 1 4 5 5 6 6 32 7 7 8 10 9 8 10 11 11 15 12 12 13
REMARK SMILES IDX 13 14 16 15 30 16 17 17 18 18 29 19 19 20 28 21 26 22 20 23
REMARK SMILES IDX 25 24 21 25 24 26 33 27 34 28 9 29 14 30 31 31 27 32 22 33
REMARK SMILES IDX 23 34
REMARK H PARENT
ROOT
ATOM      1  O   UNL     1      85.019  57.381  44.038  1.00  0.00    -0.462 OA
ENDROOT
BRANCH   1   2
ATOM      2  C   UNL     1      85.500  58.521  44.605  1.00  0.00     0.302 C 
ATOM      3  O   UNL     1      86.425  59.199  44.186  1.00  0.00    -0.253 OA
ATOM      4  C   UNL     1      84.721  58.833  45.847  1.00  0.00     0.139 C 
ENDBRANCH   1   2
BRANCH   1   5
ATOM      5  C   UNL     1      85.538  56.122  44.529  1.00  0.00     0.182 C 
ATOM      6  C   UNL     1      86.590  55.657  43.517  1.00  0.00     0.046 C 
ATOM      7  C   UNL     1      84.393  55.065  44.714  1.00  0.00     0.005 C 
ATOM      8  C   UNL     1      87.279  54.328  43.872  1.00  0.00     0.011 C 
ATOM      9  C   UNL     1      84.938  53.620  44.403  1.00  0.00     0.005 C 
ATOM     10  C   UNL     1      86.436  53.365  44.758  1.00  0.00    -0.025 C 
ATOM     11  C   UNL     1      84.072  52.452  44.872  1.00  0.00     0.005 C 
ATOM     12  C   UNL     1      86.805  51.818  44.599  1.00  0.00     0.006 C 
ATOM     13  C   UNL     1      84.361  51.204  44.031  1.00  0.00     0.008 C 
ATOM     14  C   UNL     1      85.871  50.936  43.699  1.00  0.00    -0.020 C 
ATOM     15  C   UNL     1      88.290  51.560  44.277  1.00  0.00     0.032 C 
ATOM     16  C   UNL     1      86.249  49.363  43.931  1.00  0.00    -0.006 C 
ATOM     17  C   UNL     1      88.635  50.124  44.021  1.00  0.00    -0.027 C 
ATOM     18  C   UNL     1      87.772  49.106  43.828  1.00  0.00    -0.064 C 
ATOM     19  C   UNL     1      85.495  48.495  42.889  1.00  0.00     0.012 C 
ATOM     20  C   UNL     1      88.245  47.638  43.640  1.00  0.00     0.022 C 
ATOM     21  C   UNL     1      85.854  47.016  42.941  1.00  0.00     0.008 C 
ATOM     22  C   UNL     1      87.358  46.761  42.689  1.00  0.00    -0.026 C 
ATOM     23  C   UNL     1      89.745  47.444  43.259  1.00  0.00     0.015 C 
ATOM     24  C   UNL     1      87.694  46.988  41.185  1.00  0.00     0.008 C 
ATOM     25  C   UNL     1      90.090  47.698  41.764  1.00  0.00    -0.035 C 
ATOM     26  C   UNL     1      88.826  47.981  40.929  1.00  0.00     0.007 C 
ATOM     27  C   UNL     1      83.228  55.358  43.727  1.00  0.00     0.015 C 
ATOM     28  C   UNL     1      83.794  55.194  46.131  1.00  0.00     0.015 C 
ATOM     29  C   UNL     1      86.769  53.684  46.248  1.00  0.00     0.012 C 
ATOM     30  C   UNL     1      86.101  51.322  42.202  1.00  0.00     0.012 C 
ATOM     31  C   UNL     1      85.840  48.877  45.359  1.00  0.00     0.017 C 
ATOM     32  C   UNL     1      87.574  45.254  43.002  1.00  0.00     0.012 C 
ATOM     33  C   UNL     1      91.051  48.895  41.618  1.00  0.00     0.011 C 
ATOM     34  C   UNL     1      90.831  46.466  41.195  1.00  0.00     0.011 C 
ENDBRANCH   1   5
TORSDOF 2
ENDMDL
