MODEL 1
REMARK VINA RESULT:   -11.133      0.000      0.000
REMARK INTER + INTRA:         -17.040
REMARK INTER:                 -14.770
REMARK INTRA:                  -2.269
REMARK UNBOUND:                -1.351
REMARK SMILES O=C1C[C@@H](c2ccccc2)Oc2c(Cc3ccccc3O)c(O)c(Cc3ccccc3O)c(O)c21
REMARK SMILES IDX 13 1 22 2 24 3 33 4 35 5 12 6 11 7 4 8 3 9 2 10 1 11 14 12
REMARK SMILES IDX 15 13 20 14 19 15 18 16 16 17 17 18 21 19 23 21 25 23 26 24
REMARK SMILES IDX 27 25 31 26 28 27 30 28 29 29 32 30 34 32 5 34 6 35 10 36
REMARK SMILES IDX 7 37 9 38 8 39
REMARK H PARENT 21 20 23 22 32 31 34 33
ROOT
ATOM      1  C   UNL     1      85.303  50.950  44.023  1.00  0.00     0.042 A 
ATOM      2  C   UNL     1      86.028  52.154  43.912  1.00  0.00     0.130 A 
ATOM      3  C   UNL     1      85.510  53.288  43.257  1.00  0.00     0.041 A 
ATOM      4  C   UNL     1      84.221  53.191  42.707  1.00  0.00     0.137 A 
ATOM      5  C   UNL     1      83.482  52.004  42.808  1.00  0.00     0.102 A 
ATOM      6  C   UNL     1      84.012  50.895  43.475  1.00  0.00     0.142 A 
ATOM      7  O   UNL     1      83.324  49.715  43.604  1.00  0.00    -0.484 OA
ATOM      8  C   UNL     1      81.899  49.858  43.521  1.00  0.00     0.211 C 
ATOM      9  C   UNL     1      81.502  50.525  42.216  1.00  0.00     0.131 C 
ATOM     10  C   UNL     1      82.149  51.876  42.179  1.00  0.00     0.174 C 
ATOM     11  O   UNL     1      81.643  52.841  41.609  1.00  0.00    -0.294 OA
ENDROOT
BRANCH   1  12
ATOM     12  C   UNL     1      85.904  49.743  44.720  1.00  0.00     0.082 C 
BRANCH  12  13
ATOM     13  C   UNL     1      86.530  48.731  43.785  1.00  0.00    -0.001 A 
ATOM     14  C   UNL     1      87.808  48.882  43.231  1.00  0.00     0.119 A 
ATOM     15  C   UNL     1      88.348  47.908  42.392  1.00  0.00     0.046 A 
ATOM     16  C   UNL     1      87.615  46.764  42.081  1.00  0.00     0.004 A 
ATOM     17  C   UNL     1      85.806  47.569  43.462  1.00  0.00     0.008 A 
ATOM     18  C   UNL     1      86.342  46.595  42.615  1.00  0.00     0.001 A 
BRANCH  14  19
ATOM     19  O   UNL     1      88.611  49.961  43.473  1.00  0.00    -0.508 OA
ATOM     20  H   UNL     1      89.156  50.145  42.682  1.00  0.00     0.293 HD
ENDBRANCH  14  19
ENDBRANCH  12  13
ENDBRANCH   1  12
BRANCH   2  21
ATOM     21  O   UNL     1      87.288  52.160  44.457  1.00  0.00    -0.507 OA
ATOM     22  H   UNL     1      87.921  51.785  43.806  1.00  0.00     0.293 HD
ENDBRANCH   2  21
BRANCH   3  23
ATOM     23  C   UNL     1      86.304  54.572  43.121  1.00  0.00     0.082 C 
BRANCH  23  24
ATOM     24  C   UNL     1      85.972  55.611  44.170  1.00  0.00    -0.001 A 
ATOM     25  C   UNL     1      86.378  55.409  45.499  1.00  0.00     0.008 A 
ATOM     26  C   UNL     1      85.273  56.785  43.864  1.00  0.00     0.119 A 
ATOM     27  C   UNL     1      86.086  56.350  46.488  1.00  0.00     0.001 A 
ATOM     28  C   UNL     1      84.977  57.729  44.847  1.00  0.00     0.046 A 
ATOM     29  C   UNL     1      85.385  57.509  46.162  1.00  0.00     0.004 A 
BRANCH  26  30
ATOM     30  O   UNL     1      84.888  57.006  42.569  1.00  0.00    -0.508 OA
ATOM     31  H   UNL     1      84.981  56.167  42.082  1.00  0.00     0.293 HD
ENDBRANCH  26  30
ENDBRANCH  23  24
ENDBRANCH   3  23
BRANCH   4  32
ATOM     32  O   UNL     1      83.719  54.292  42.054  1.00  0.00    -0.507 OA
ATOM     33  H   UNL     1      82.845  54.057  41.668  1.00  0.00     0.293 HD
ENDBRANCH   4  32
BRANCH   8  34
ATOM     34  C   UNL     1      81.279  48.479  43.635  1.00  0.00    -0.007 A 
ATOM     35  C   UNL     1      82.096  47.339  43.686  1.00  0.00     0.007 A 
ATOM     36  C   UNL     1      79.886  48.313  43.714  1.00  0.00     0.007 A 
ATOM     37  C   UNL     1      81.534  46.067  43.807  1.00  0.00     0.000 A 
ATOM     38  C   UNL     1      79.326  47.040  43.835  1.00  0.00     0.000 A 
ATOM     39  C   UNL     1      80.151  45.919  43.882  1.00  0.00     0.000 A 
ENDBRANCH   8  34
TORSDOF 9
ENDMDL
MODEL 2
REMARK VINA RESULT:   -10.385      1.950      5.053
REMARK INTER + INTRA:         -15.985
REMARK INTER:                 -13.943
REMARK INTRA:                  -2.043
REMARK UNBOUND:                -1.351
REMARK SMILES O=C1C[C@@H](c2ccccc2)Oc2c(Cc3ccccc3O)c(O)c(Cc3ccccc3O)c(O)c21
REMARK SMILES IDX 13 1 22 2 24 3 33 4 35 5 12 6 11 7 4 8 3 9 2 10 1 11 14 12
REMARK SMILES IDX 15 13 20 14 19 15 18 16 16 17 17 18 21 19 23 21 25 23 26 24
REMARK SMILES IDX 27 25 31 26 28 27 30 28 29 29 32 30 34 32 5 34 6 35 10 36
REMARK SMILES IDX 7 37 9 38 8 39
REMARK H PARENT 21 20 23 22 32 31 34 33
ROOT
ATOM      1  C   UNL     1      85.527  50.724  43.248  1.00  0.00     0.042 A 
ATOM      2  C   UNL     1      84.952  51.991  43.020  1.00  0.00     0.130 A 
ATOM      3  C   UNL     1      85.437  52.872  42.034  1.00  0.00     0.041 A 
ATOM      4  C   UNL     1      86.529  52.447  41.260  1.00  0.00     0.137 A 
ATOM      5  C   UNL     1      87.115  51.191  41.469  1.00  0.00     0.102 A 
ATOM      6  C   UNL     1      86.609  50.328  42.446  1.00  0.00     0.142 A 
ATOM      7  O   UNL     1      87.145  49.086  42.682  1.00  0.00    -0.484 OA
ATOM      8  C   UNL     1      87.844  48.530  41.560  1.00  0.00     0.211 C 
ATOM      9  C   UNL     1      88.945  49.467  41.095  1.00  0.00     0.131 C 
ATOM     10  C   UNL     1      88.304  50.762  40.700  1.00  0.00     0.174 C 
ATOM     11  O   UNL     1      88.757  51.486  39.815  1.00  0.00    -0.294 OA
ENDROOT
BRANCH   1  12
ATOM     12  C   UNL     1      84.989  49.811  44.334  1.00  0.00     0.082 C 
BRANCH  12  13
ATOM     13  C   UNL     1      84.022  48.757  43.840  1.00  0.00    -0.001 A 
ATOM     14  C   UNL     1      82.657  48.996  43.641  1.00  0.00     0.119 A 
ATOM     15  C   UNL     1      81.812  47.995  43.161  1.00  0.00     0.046 A 
ATOM     16  C   UNL     1      82.317  46.727  42.879  1.00  0.00     0.004 A 
ATOM     17  C   UNL     1      84.513  47.471  43.548  1.00  0.00     0.008 A 
ATOM     18  C   UNL     1      83.668  46.464  43.074  1.00  0.00     0.001 A 
BRANCH  14  19
ATOM     19  O   UNL     1      82.061  50.203  43.881  1.00  0.00    -0.508 OA
ATOM     20  H   UNL     1      81.956  50.328  44.845  1.00  0.00     0.293 HD
ENDBRANCH  14  19
ENDBRANCH  12  13
ENDBRANCH   1  12
BRANCH   2  21
ATOM     21  O   UNL     1      83.901  52.338  43.832  1.00  0.00    -0.507 OA
ATOM     22  H   UNL     1      83.084  52.397  43.290  1.00  0.00     0.293 HD
ENDBRANCH   2  21
BRANCH   3  23
ATOM     23  C   UNL     1      84.828  54.242  41.809  1.00  0.00     0.082 C 
BRANCH  23  24
ATOM     24  C   UNL     1      85.242  55.272  42.838  1.00  0.00    -0.001 A 
ATOM     25  C   UNL     1      86.546  55.250  43.357  1.00  0.00     0.008 A 
ATOM     26  C   UNL     1      84.367  56.266  43.293  1.00  0.00     0.119 A 
ATOM     27  C   UNL     1      86.955  56.188  44.306  1.00  0.00     0.001 A 
ATOM     28  C   UNL     1      84.768  57.206  44.242  1.00  0.00     0.046 A 
ATOM     29  C   UNL     1      86.066  57.164  44.750  1.00  0.00     0.004 A 
BRANCH  26  30
ATOM     30  O   UNL     1      83.098  56.314  42.781  1.00  0.00    -0.508 OA
ATOM     31  H   UNL     1      83.138  56.015  41.854  1.00  0.00     0.293 HD
ENDBRANCH  26  30
ENDBRANCH  23  24
ENDBRANCH   3  23
BRANCH   4  32
ATOM     32  O   UNL     1      87.013  53.312  40.307  1.00  0.00    -0.507 OA
ATOM     33  H   UNL     1      87.017  54.222  40.682  1.00  0.00     0.293 HD
ENDBRANCH   4  32
BRANCH   8  34
ATOM     34  C   UNL     1      88.415  47.189  41.978  1.00  0.00    -0.007 A 
ATOM     35  C   UNL     1      89.779  47.069  42.289  1.00  0.00     0.007 A 
ATOM     36  C   UNL     1      87.597  46.052  42.086  1.00  0.00     0.007 A 
ATOM     37  C   UNL     1      90.310  45.841  42.690  1.00  0.00     0.000 A 
ATOM     38  C   UNL     1      88.130  44.826  42.487  1.00  0.00     0.000 A 
ATOM     39  C   UNL     1      89.486  44.722  42.789  1.00  0.00     0.000 A 
ENDBRANCH   8  34
TORSDOF 9
ENDMDL
MODEL 3
REMARK VINA RESULT:   -10.272      2.074      7.613
REMARK INTER + INTRA:         -15.827
REMARK INTER:                 -13.973
REMARK INTRA:                  -1.854
REMARK UNBOUND:                -1.351
REMARK SMILES O=C1C[C@@H](c2ccccc2)Oc2c(Cc3ccccc3O)c(O)c(Cc3ccccc3O)c(O)c21
REMARK SMILES IDX 13 1 22 2 24 3 33 4 35 5 12 6 11 7 4 8 3 9 2 10 1 11 14 12
REMARK SMILES IDX 15 13 20 14 19 15 18 16 16 17 17 18 21 19 23 21 25 23 26 24
REMARK SMILES IDX 27 25 31 26 28 27 30 28 29 29 32 30 34 32 5 34 6 35 10 36
REMARK SMILES IDX 7 37 9 38 8 39
REMARK H PARENT 21 20 23 22 32 31 34 33
ROOT
ATOM      1  C   UNL     1      85.716  50.680  43.661  1.00  0.00     0.042 A 
ATOM      2  C   UNL     1      86.377  49.699  42.895  1.00  0.00     0.130 A 
ATOM      3  C   UNL     1      87.465  50.006  42.056  1.00  0.00     0.041 A 
ATOM      4  C   UNL     1      87.892  51.343  42.003  1.00  0.00     0.137 A 
ATOM      5  C   UNL     1      87.250  52.334  42.759  1.00  0.00     0.102 A 
ATOM      6  C   UNL     1      86.179  52.004  43.595  1.00  0.00     0.142 A 
ATOM      7  O   UNL     1      85.524  52.938  44.358  1.00  0.00    -0.484 OA
ATOM      8  C   UNL     1      86.313  54.096  44.666  1.00  0.00     0.211 C 
ATOM      9  C   UNL     1      86.816  54.756  43.395  1.00  0.00     0.131 C 
ATOM     10  C   UNL     1      87.655  53.754  42.662  1.00  0.00     0.174 C 
ATOM     11  O   UNL     1      88.610  54.074  41.957  1.00  0.00    -0.294 OA
ENDROOT
BRANCH   1  12
ATOM     12  C   UNL     1      84.533  50.313  44.539  1.00  0.00     0.082 C 
BRANCH  12  13
ATOM     13  C   UNL     1      83.224  50.173  43.794  1.00  0.00    -0.001 A 
ATOM     14  C   UNL     1      82.535  48.960  43.667  1.00  0.00     0.119 A 
ATOM     15  C   UNL     1      81.319  48.889  42.989  1.00  0.00     0.046 A 
ATOM     16  C   UNL     1      80.771  50.033  42.411  1.00  0.00     0.004 A 
ATOM     17  C   UNL     1      82.653  51.317  43.206  1.00  0.00     0.008 A 
ATOM     18  C   UNL     1      81.438  51.248  42.518  1.00  0.00     0.001 A 
BRANCH  14  19
ATOM     19  O   UNL     1      82.981  47.783  44.198  1.00  0.00    -0.508 OA
ATOM     20  H   UNL     1      82.420  47.048  43.880  1.00  0.00     0.293 HD
ENDBRANCH  14  19
ENDBRANCH  12  13
ENDBRANCH   1  12
BRANCH   2  21
ATOM     21  O   UNL     1      85.886  48.421  42.987  1.00  0.00    -0.507 OA
ATOM     22  H   UNL     1      85.476  48.297  43.871  1.00  0.00     0.293 HD
ENDBRANCH   2  21
BRANCH   3  23
ATOM     23  C   UNL     1      88.157  48.950  41.216  1.00  0.00     0.082 C 
BRANCH  23  24
ATOM     24  C   UNL     1      89.212  48.165  41.966  1.00  0.00    -0.001 A 
ATOM     25  C   UNL     1      90.248  48.848  42.624  1.00  0.00     0.008 A 
ATOM     26  C   UNL     1      89.191  46.767  42.039  1.00  0.00     0.119 A 
ATOM     27  C   UNL     1      91.234  48.150  43.324  1.00  0.00     0.001 A 
ATOM     28  C   UNL     1      90.173  46.063  42.735  1.00  0.00     0.046 A 
ATOM     29  C   UNL     1      91.197  46.758  43.378  1.00  0.00     0.004 A 
BRANCH  26  30
ATOM     30  O   UNL     1      88.176  46.088  41.420  1.00  0.00    -0.508 OA
ATOM     31  H   UNL     1      87.332  46.420  41.779  1.00  0.00     0.293 HD
ENDBRANCH  26  30
ENDBRANCH  23  24
ENDBRANCH   3  23
BRANCH   4  32
ATOM     32  O   UNL     1      88.945  51.647  41.173  1.00  0.00    -0.507 OA
ATOM     33  H   UNL     1      89.323  50.807  40.825  1.00  0.00     0.293 HD
ENDBRANCH   4  32
BRANCH   8  34
ATOM     34  C   UNL     1      85.453  55.053  45.469  1.00  0.00    -0.007 A 
ATOM     35  C   UNL     1      85.502  56.432  45.211  1.00  0.00     0.007 A 
ATOM     36  C   UNL     1      84.578  54.584  46.463  1.00  0.00     0.007 A 
ATOM     37  C   UNL     1      84.701  57.318  45.934  1.00  0.00     0.000 A 
ATOM     38  C   UNL     1      83.779  55.472  47.185  1.00  0.00     0.000 A 
ATOM     39  C   UNL     1      83.841  56.838  46.919  1.00  0.00     0.000 A 
ENDBRANCH   8  34
TORSDOF 9
ENDMDL
MODEL 4
REMARK VINA RESULT:   -10.176      2.929      8.042
REMARK INTER + INTRA:         -15.691
REMARK INTER:                 -14.238
REMARK INTRA:                  -1.452
REMARK UNBOUND:                -1.351
REMARK SMILES O=C1C[C@@H](c2ccccc2)Oc2c(Cc3ccccc3O)c(O)c(Cc3ccccc3O)c(O)c21
REMARK SMILES IDX 13 1 22 2 24 3 33 4 35 5 12 6 11 7 4 8 3 9 2 10 1 11 14 12
REMARK SMILES IDX 15 13 20 14 19 15 18 16 16 17 17 18 21 19 23 21 25 23 26 24
REMARK SMILES IDX 27 25 31 26 28 27 30 28 29 29 32 30 34 32 5 34 6 35 10 36
REMARK SMILES IDX 7 37 9 38 8 39
REMARK H PARENT 21 20 23 22 32 31 34 33
ROOT
ATOM      1  C   UNL     1      87.168  52.096  42.297  1.00  0.00     0.042 A 
ATOM      2  C   UNL     1      87.882  50.999  41.775  1.00  0.00     0.130 A 
ATOM      3  C   UNL     1      88.496  50.038  42.600  1.00  0.00     0.041 A 
ATOM      4  C   UNL     1      88.372  50.197  43.991  1.00  0.00     0.137 A 
ATOM      5  C   UNL     1      87.665  51.280  44.532  1.00  0.00     0.102 A 
ATOM      6  C   UNL     1      87.053  52.215  43.692  1.00  0.00     0.142 A 
ATOM      7  O   UNL     1      86.345  53.287  44.175  1.00  0.00    -0.484 OA
ATOM      8  C   UNL     1      85.818  53.092  45.495  1.00  0.00     0.211 C 
ATOM      9  C   UNL     1      86.930  52.749  46.470  1.00  0.00     0.131 C 
ATOM     10  C   UNL     1      87.582  51.487  45.994  1.00  0.00     0.174 C 
ATOM     11  O   UNL     1      88.086  50.668  46.760  1.00  0.00    -0.294 OA
ENDROOT
BRANCH   1  12
ATOM     12  C   UNL     1      86.537  53.123  41.375  1.00  0.00     0.082 C 
BRANCH  12  13
ATOM     13  C   UNL     1      85.026  53.171  41.436  1.00  0.00    -0.001 A 
ATOM     14  C   UNL     1      84.286  54.349  41.274  1.00  0.00     0.119 A 
ATOM     15  C   UNL     1      82.891  54.335  41.317  1.00  0.00     0.046 A 
ATOM     16  C   UNL     1      82.208  53.140  41.534  1.00  0.00     0.004 A 
ATOM     17  C   UNL     1      84.318  51.974  41.652  1.00  0.00     0.008 A 
ATOM     18  C   UNL     1      82.922  51.958  41.704  1.00  0.00     0.001 A 
BRANCH  14  19
ATOM     19  O   UNL     1      84.855  55.571  41.052  1.00  0.00    -0.508 OA
ATOM     20  H   UNL     1      85.805  55.456  40.849  1.00  0.00     0.293 HD
ENDBRANCH  14  19
ENDBRANCH  12  13
ENDBRANCH   1  12
BRANCH   2  21
ATOM     21  O   UNL     1      87.974  50.927  40.407  1.00  0.00    -0.507 OA
ATOM     22  H   UNL     1      88.266  51.798  40.059  1.00  0.00     0.293 HD
ENDBRANCH   2  21
BRANCH   3  23
ATOM     23  C   UNL     1      89.282  48.872  42.033  1.00  0.00     0.082 C 
BRANCH  23  24
ATOM     24  C   UNL     1      88.589  47.535  42.182  1.00  0.00    -0.001 A 
ATOM     25  C   UNL     1      87.186  47.481  42.214  1.00  0.00     0.008 A 
ATOM     26  C   UNL     1      89.299  46.333  42.282  1.00  0.00     0.119 A 
ATOM     27  C   UNL     1      86.520  46.262  42.350  1.00  0.00     0.001 A 
ATOM     28  C   UNL     1      88.640  45.111  42.419  1.00  0.00     0.046 A 
ATOM     29  C   UNL     1      87.247  45.078  42.454  1.00  0.00     0.004 A 
BRANCH  26  30
ATOM     30  O   UNL     1      90.667  46.367  42.231  1.00  0.00    -0.508 OA
ATOM     31  H   UNL     1      90.980  46.926  42.966  1.00  0.00     0.293 HD
ENDBRANCH  26  30
ENDBRANCH  23  24
ENDBRANCH   3  23
BRANCH   4  32
ATOM     32  O   UNL     1      88.983  49.267  44.798  1.00  0.00    -0.507 OA
ATOM     33  H   UNL     1      89.952  49.444  44.804  1.00  0.00     0.293 HD
ENDBRANCH   4  32
BRANCH   8  34
ATOM     34  C   UNL     1      85.105  54.363  45.911  1.00  0.00    -0.007 A 
ATOM     35  C   UNL     1      84.446  54.429  47.149  1.00  0.00     0.007 A 
ATOM     36  C   UNL     1      85.106  55.501  45.087  1.00  0.00     0.007 A 
ATOM     37  C   UNL     1      83.800  55.601  47.548  1.00  0.00     0.000 A 
ATOM     38  C   UNL     1      84.460  56.671  45.488  1.00  0.00     0.000 A 
ATOM     39  C   UNL     1      83.808  56.720  46.718  1.00  0.00     0.000 A 
ENDBRANCH   8  34
TORSDOF 9
ENDMDL
MODEL 5
REMARK VINA RESULT:   -10.158      2.407      4.708
REMARK INTER + INTRA:         -15.665
REMARK INTER:                 -13.388
REMARK INTRA:                  -2.278
REMARK UNBOUND:                -1.351
REMARK SMILES O=C1C[C@@H](c2ccccc2)Oc2c(Cc3ccccc3O)c(O)c(Cc3ccccc3O)c(O)c21
REMARK SMILES IDX 13 1 22 2 24 3 33 4 35 5 12 6 11 7 4 8 3 9 2 10 1 11 14 12
REMARK SMILES IDX 15 13 20 14 19 15 18 16 16 17 17 18 21 19 23 21 25 23 26 24
REMARK SMILES IDX 27 25 31 26 28 27 30 28 29 29 32 30 34 32 5 34 6 35 10 36
REMARK SMILES IDX 7 37 9 38 8 39
REMARK H PARENT 21 20 23 22 32 31 34 33
ROOT
ATOM      1  C   UNL     1      86.537  49.711  44.269  1.00  0.00     0.042 A 
ATOM      2  C   UNL     1      85.850  50.929  44.441  1.00  0.00     0.130 A 
ATOM      3  C   UNL     1      84.472  51.060  44.184  1.00  0.00     0.041 A 
ATOM      4  C   UNL     1      83.779  49.919  43.746  1.00  0.00     0.137 A 
ATOM      5  C   UNL     1      84.443  48.697  43.569  1.00  0.00     0.102 A 
ATOM      6  C   UNL     1      85.809  48.588  43.843  1.00  0.00     0.142 A 
ATOM      7  O   UNL     1      86.500  47.411  43.691  1.00  0.00    -0.484 OA
ATOM      8  C   UNL     1      85.679  46.238  43.778  1.00  0.00     0.211 C 
ATOM      9  C   UNL     1      84.557  46.292  42.757  1.00  0.00     0.131 C 
ATOM     10  C   UNL     1      83.733  47.508  43.049  1.00  0.00     0.174 C 
ATOM     11  O   UNL     1      82.525  47.563  42.824  1.00  0.00    -0.294 OA
ENDROOT
BRANCH   1  12
ATOM     12  C   UNL     1      88.028  49.614  44.538  1.00  0.00     0.082 C 
BRANCH  12  13
ATOM     13  C   UNL     1      88.887  49.606  43.292  1.00  0.00    -0.001 A 
ATOM     14  C   UNL     1      89.037  50.717  42.453  1.00  0.00     0.119 A 
ATOM     15  C   UNL     1      89.860  50.664  41.328  1.00  0.00     0.046 A 
ATOM     16  C   UNL     1      90.543  49.491  41.013  1.00  0.00     0.004 A 
ATOM     17  C   UNL     1      89.587  48.431  42.959  1.00  0.00     0.008 A 
ATOM     18  C   UNL     1      90.406  48.373  41.828  1.00  0.00     0.001 A 
BRANCH  14  19
ATOM     19  O   UNL     1      88.418  51.915  42.672  1.00  0.00    -0.508 OA
ATOM     20  H   UNL     1      88.517  52.166  43.612  1.00  0.00     0.293 HD
ENDBRANCH  14  19
ENDBRANCH  12  13
ENDBRANCH   1  12
BRANCH   2  21
ATOM     21  O   UNL     1      86.603  52.000  44.853  1.00  0.00    -0.507 OA
ATOM     22  H   UNL     1      86.261  52.816  44.426  1.00  0.00     0.293 HD
ENDBRANCH   2  21
BRANCH   3  23
ATOM     23  C   UNL     1      83.744  52.379  44.350  1.00  0.00     0.082 C 
BRANCH  23  24
ATOM     24  C   UNL     1      83.965  53.349  43.209  1.00  0.00    -0.001 A 
ATOM     25  C   UNL     1      83.353  53.110  41.968  1.00  0.00     0.008 A 
ATOM     26  C   UNL     1      84.758  54.494  43.345  1.00  0.00     0.119 A 
ATOM     27  C   UNL     1      83.540  53.988  40.898  1.00  0.00     0.001 A 
ATOM     28  C   UNL     1      84.949  55.375  42.281  1.00  0.00     0.046 A 
ATOM     29  C   UNL     1      84.338  55.119  41.054  1.00  0.00     0.004 A 
BRANCH  26  30
ATOM     30  O   UNL     1      85.344  54.752  44.556  1.00  0.00    -0.508 OA
ATOM     31  H   UNL     1      84.634  54.920  45.202  1.00  0.00     0.293 HD
ENDBRANCH  26  30
ENDBRANCH  23  24
ENDBRANCH   3  23
BRANCH   4  32
ATOM     32  O   UNL     1      82.437  50.049  43.479  1.00  0.00    -0.507 OA
ATOM     33  H   UNL     1      82.156  49.298  42.908  1.00  0.00     0.293 HD
ENDBRANCH   4  32
BRANCH   8  34
ATOM     34  C   UNL     1      86.562  45.027  43.549  1.00  0.00    -0.007 A 
ATOM     35  C   UNL     1      87.788  45.163  42.878  1.00  0.00     0.007 A 
ATOM     36  C   UNL     1      86.189  43.756  44.019  1.00  0.00     0.007 A 
ATOM     37  C   UNL     1      88.614  44.056  42.677  1.00  0.00     0.000 A 
ATOM     38  C   UNL     1      87.017  42.651  43.816  1.00  0.00     0.000 A 
ATOM     39  C   UNL     1      88.229  42.802  43.146  1.00  0.00     0.000 A 
ENDBRANCH   8  34
TORSDOF 9
ENDMDL
MODEL 6
REMARK VINA RESULT:   -10.086      2.289      5.587
REMARK INTER + INTRA:         -15.564
REMARK INTER:                 -13.309
REMARK INTRA:                  -2.255
REMARK UNBOUND:                -1.351
REMARK SMILES O=C1C[C@@H](c2ccccc2)Oc2c(Cc3ccccc3O)c(O)c(Cc3ccccc3O)c(O)c21
REMARK SMILES IDX 13 1 22 2 24 3 33 4 35 5 12 6 11 7 4 8 3 9 2 10 1 11 14 12
REMARK SMILES IDX 15 13 20 14 19 15 18 16 16 17 17 18 21 19 23 21 25 23 26 24
REMARK SMILES IDX 27 25 31 26 28 27 30 28 29 29 32 30 34 32 5 34 6 35 10 36
REMARK SMILES IDX 7 37 9 38 8 39
REMARK H PARENT 21 20 23 22 32 31 34 33
ROOT
ATOM      1  C   UNL     1      85.204  50.455  44.055  1.00  0.00     0.042 A 
ATOM      2  C   UNL     1      86.548  50.836  43.869  1.00  0.00     0.130 A 
ATOM      3  C   UNL     1      87.541  49.924  43.464  1.00  0.00     0.041 A 
ATOM      4  C   UNL     1      87.151  48.594  43.239  1.00  0.00     0.137 A 
ATOM      5  C   UNL     1      85.819  48.193  43.416  1.00  0.00     0.102 A 
ATOM      6  C   UNL     1      84.848  49.120  43.807  1.00  0.00     0.142 A 
ATOM      7  O   UNL     1      83.531  48.777  43.987  1.00  0.00    -0.484 OA
ATOM      8  C   UNL     1      83.124  47.616  43.247  1.00  0.00     0.211 C 
ATOM      9  C   UNL     1      84.001  46.426  43.593  1.00  0.00     0.131 C 
ATOM     10  C   UNL     1      85.413  46.782  43.240  1.00  0.00     0.174 C 
ATOM     11  O   UNL     1      86.237  45.947  42.871  1.00  0.00    -0.294 OA
ENDROOT
BRANCH   1  12
ATOM     12  C   UNL     1      84.166  51.464  44.512  1.00  0.00     0.082 C 
BRANCH  12  13
ATOM     13  C   UNL     1      83.529  52.255  43.390  1.00  0.00    -0.001 A 
ATOM     14  C   UNL     1      83.959  53.532  43.006  1.00  0.00     0.119 A 
ATOM     15  C   UNL     1      83.352  54.209  41.949  1.00  0.00     0.046 A 
ATOM     16  C   UNL     1      82.292  53.625  41.259  1.00  0.00     0.004 A 
ATOM     17  C   UNL     1      82.459  51.681  42.680  1.00  0.00     0.008 A 
ATOM     18  C   UNL     1      81.843  52.360  41.625  1.00  0.00     0.001 A 
BRANCH  14  19
ATOM     19  O   UNL     1      84.991  54.192  43.612  1.00  0.00    -0.508 OA
ATOM     20  H   UNL     1      84.728  55.117  43.788  1.00  0.00     0.293 HD
ENDBRANCH  14  19
ENDBRANCH  12  13
ENDBRANCH   1  12
BRANCH   2  21
ATOM     21  O   UNL     1      86.850  52.150  44.130  1.00  0.00    -0.507 OA
ATOM     22  H   UNL     1      87.821  52.236  44.258  1.00  0.00     0.293 HD
ENDBRANCH   2  21
BRANCH   3  23
ATOM     23  C   UNL     1      88.989  50.335  43.288  1.00  0.00     0.082 C 
BRANCH  23  24
ATOM     24  C   UNL     1      89.263  51.074  41.995  1.00  0.00    -0.001 A 
ATOM     25  C   UNL     1      89.094  52.467  41.943  1.00  0.00     0.008 A 
ATOM     26  C   UNL     1      89.691  50.417  40.836  1.00  0.00     0.119 A 
ATOM     27  C   UNL     1      89.339  53.174  40.765  1.00  0.00     0.001 A 
ATOM     28  C   UNL     1      89.938  51.116  39.655  1.00  0.00     0.046 A 
ATOM     29  C   UNL     1      89.760  52.499  39.621  1.00  0.00     0.004 A 
BRANCH  26  30
ATOM     30  O   UNL     1      89.881  49.061  40.876  1.00  0.00    -0.508 OA
ATOM     31  H   UNL     1      89.749  48.714  39.975  1.00  0.00     0.293 HD
ENDBRANCH  26  30
ENDBRANCH  23  24
ENDBRANCH   3  23
BRANCH   4  32
ATOM     32  O   UNL     1      88.121  47.698  42.858  1.00  0.00    -0.507 OA
ATOM     33  H   UNL     1      88.554  47.340  43.667  1.00  0.00     0.293 HD
ENDBRANCH   4  32
BRANCH   8  34
ATOM     34  C   UNL     1      81.672  47.332  43.576  1.00  0.00    -0.007 A 
ATOM     35  C   UNL     1      81.272  46.039  43.946  1.00  0.00     0.007 A 
ATOM     36  C   UNL     1      80.706  48.352  43.541  1.00  0.00     0.007 A 
ATOM     37  C   UNL     1      79.939  45.772  44.266  1.00  0.00     0.000 A 
ATOM     38  C   UNL     1      79.374  48.083  43.861  1.00  0.00     0.000 A 
ATOM     39  C   UNL     1      78.992  46.794  44.224  1.00  0.00     0.000 A 
ENDBRANCH   8  34
TORSDOF 9
ENDMDL
MODEL 7
REMARK VINA RESULT:    -9.993      3.131      8.072
REMARK INTER + INTRA:         -15.434
REMARK INTER:                 -13.895
REMARK INTRA:                  -1.539
REMARK UNBOUND:                -1.351
REMARK SMILES O=C1C[C@@H](c2ccccc2)Oc2c(Cc3ccccc3O)c(O)c(Cc3ccccc3O)c(O)c21
REMARK SMILES IDX 13 1 22 2 24 3 33 4 35 5 12 6 11 7 4 8 3 9 2 10 1 11 14 12
REMARK SMILES IDX 15 13 20 14 19 15 18 16 16 17 17 18 21 19 23 21 25 23 26 24
REMARK SMILES IDX 27 25 31 26 28 27 30 28 29 29 32 30 34 32 5 34 6 35 10 36
REMARK SMILES IDX 7 37 9 38 8 39
REMARK H PARENT 21 20 23 22 32 31 34 33
ROOT
ATOM      1  C   UNL     1      86.158  52.457  43.014  1.00  0.00     0.042 A 
ATOM      2  C   UNL     1      86.453  51.091  42.833  1.00  0.00     0.130 A 
ATOM      3  C   UNL     1      86.694  50.222  43.914  1.00  0.00     0.041 A 
ATOM      4  C   UNL     1      86.625  50.759  45.211  1.00  0.00     0.137 A 
ATOM      5  C   UNL     1      86.331  52.115  45.414  1.00  0.00     0.102 A 
ATOM      6  C   UNL     1      86.084  52.956  44.324  1.00  0.00     0.142 A 
ATOM      7  O   UNL     1      85.786  54.287  44.474  1.00  0.00    -0.484 OA
ATOM      8  C   UNL     1      85.218  54.618  45.749  1.00  0.00     0.211 C 
ATOM      9  C   UNL     1      86.138  54.184  46.876  1.00  0.00     0.131 C 
ATOM     10  C   UNL     1      86.319  52.701  46.772  1.00  0.00     0.174 C 
ATOM     11  O   UNL     1      86.505  51.983  47.753  1.00  0.00    -0.294 OA
ENDROOT
BRANCH   1  12
ATOM     12  C   UNL     1      85.925  53.366  41.821  1.00  0.00     0.082 C 
BRANCH  12  13
ATOM     13  C   UNL     1      84.466  53.614  41.503  1.00  0.00    -0.001 A 
ATOM     14  C   UNL     1      84.015  54.717  40.767  1.00  0.00     0.119 A 
ATOM     15  C   UNL     1      82.661  54.887  40.480  1.00  0.00     0.046 A 
ATOM     16  C   UNL     1      81.726  53.959  40.936  1.00  0.00     0.004 A 
ATOM     17  C   UNL     1      83.508  52.687  41.952  1.00  0.00     0.008 A 
ATOM     18  C   UNL     1      82.149  52.859  41.674  1.00  0.00     0.001 A 
BRANCH  14  19
ATOM     19  O   UNL     1      84.847  55.682  40.270  1.00  0.00    -0.508 OA
ATOM     20  H   UNL     1      85.767  55.351  40.274  1.00  0.00     0.293 HD
ENDBRANCH  14  19
ENDBRANCH  12  13
ENDBRANCH   1  12
BRANCH   2  21
ATOM     21  O   UNL     1      86.521  50.649  41.535  1.00  0.00    -0.507 OA
ATOM     22  H   UNL     1      87.454  50.425  41.321  1.00  0.00     0.293 HD
ENDBRANCH   2  21
BRANCH   3  23
ATOM     23  C   UNL     1      87.033  48.758  43.712  1.00  0.00     0.082 C 
BRANCH  23  24
ATOM     24  C   UNL     1      88.360  48.527  43.021  1.00  0.00    -0.001 A 
ATOM     25  C   UNL     1      89.485  49.267  43.416  1.00  0.00     0.008 A 
ATOM     26  C   UNL     1      88.514  47.586  41.996  1.00  0.00     0.119 A 
ATOM     27  C   UNL     1      90.722  49.074  42.796  1.00  0.00     0.001 A 
ATOM     28  C   UNL     1      89.745  47.388  41.372  1.00  0.00     0.046 A 
ATOM     29  C   UNL     1      90.851  48.137  41.774  1.00  0.00     0.004 A 
BRANCH  26  30
ATOM     30  O   UNL     1      87.430  46.841  41.614  1.00  0.00    -0.508 OA
ATOM     31  H   UNL     1      87.509  46.666  40.659  1.00  0.00     0.293 HD
ENDBRANCH  26  30
ENDBRANCH  23  24
ENDBRANCH   3  23
BRANCH   4  32
ATOM     32  O   UNL     1      86.874  49.916  46.267  1.00  0.00    -0.507 OA
ATOM     33  H   UNL     1      87.525  49.235  45.980  1.00  0.00     0.293 HD
ENDBRANCH   4  32
BRANCH   8  34
ATOM     34  C   UNL     1      84.984  56.116  45.787  1.00  0.00    -0.007 A 
ATOM     35  C   UNL     1      85.709  56.965  44.936  1.00  0.00     0.007 A 
ATOM     36  C   UNL     1      84.029  56.681  46.648  1.00  0.00     0.007 A 
ATOM     37  C   UNL     1      85.489  58.344  44.954  1.00  0.00     0.000 A 
ATOM     38  C   UNL     1      83.811  58.059  46.664  1.00  0.00     0.000 A 
ATOM     39  C   UNL     1      84.540  58.889  45.816  1.00  0.00     0.000 A 
ENDBRANCH   8  34
TORSDOF 9
ENDMDL
MODEL 8
REMARK VINA RESULT:    -9.930      2.175      3.252
REMARK INTER + INTRA:         -15.344
REMARK INTER:                 -13.249
REMARK INTRA:                  -2.095
REMARK UNBOUND:                -1.351
REMARK SMILES O=C1C[C@@H](c2ccccc2)Oc2c(Cc3ccccc3O)c(O)c(Cc3ccccc3O)c(O)c21
REMARK SMILES IDX 13 1 22 2 24 3 33 4 35 5 12 6 11 7 4 8 3 9 2 10 1 11 14 12
REMARK SMILES IDX 15 13 20 14 19 15 18 16 16 17 17 18 21 19 23 21 25 23 26 24
REMARK SMILES IDX 27 25 31 26 28 27 30 28 29 29 32 30 34 32 5 34 6 35 10 36
REMARK SMILES IDX 7 37 9 38 8 39
REMARK H PARENT 21 20 23 22 32 31 34 33
ROOT
ATOM      1  C   UNL     1      85.273  50.115  43.794  1.00  0.00     0.042 A 
ATOM      2  C   UNL     1      86.206  51.136  43.525  1.00  0.00     0.130 A 
ATOM      3  C   UNL     1      85.878  52.278  42.769  1.00  0.00     0.041 A 
ATOM      4  C   UNL     1      84.565  52.381  42.282  1.00  0.00     0.137 A 
ATOM      5  C   UNL     1      83.619  51.378  42.539  1.00  0.00     0.102 A 
ATOM      6  C   UNL     1      83.966  50.260  43.303  1.00  0.00     0.142 A 
ATOM      7  O   UNL     1      83.073  49.256  43.586  1.00  0.00    -0.484 OA
ATOM      8  C   UNL     1      81.699  49.666  43.540  1.00  0.00     0.211 C 
ATOM      9  C   UNL     1      81.363  50.264  42.185  1.00  0.00     0.131 C 
ATOM     10  C   UNL     1      82.253  51.451  41.977  1.00  0.00     0.174 C 
ATOM     11  O   UNL     1      81.909  52.434  41.323  1.00  0.00    -0.294 OA
ENDROOT
BRANCH   1  12
ATOM     12  C   UNL     1      85.671  48.890  44.597  1.00  0.00     0.082 C 
BRANCH  12  13
ATOM     13  C   UNL     1      85.952  47.661  43.760  1.00  0.00    -0.001 A 
ATOM     14  C   UNL     1      87.107  47.506  42.984  1.00  0.00     0.119 A 
ATOM     15  C   UNL     1      87.329  46.342  42.247  1.00  0.00     0.046 A 
ATOM     16  C   UNL     1      86.391  45.311  42.265  1.00  0.00     0.004 A 
ATOM     17  C   UNL     1      85.018  46.609  43.767  1.00  0.00     0.008 A 
ATOM     18  C   UNL     1      85.234  45.445  43.025  1.00  0.00     0.001 A 
BRANCH  14  19
ATOM     19  O   UNL     1      88.090  48.451  42.899  1.00  0.00    -0.508 OA
ATOM     20  H   UNL     1      87.688  49.323  42.714  1.00  0.00     0.293 HD
ENDBRANCH  14  19
ENDBRANCH  12  13
ENDBRANCH   1  12
BRANCH   2  21
ATOM     21  O   UNL     1      87.473  50.950  44.020  1.00  0.00    -0.507 OA
ATOM     22  H   UNL     1      87.493  50.120  44.546  1.00  0.00     0.293 HD
ENDBRANCH   2  21
BRANCH   3  23
ATOM     23  C   UNL     1      86.893  53.362  42.464  1.00  0.00     0.082 C 
BRANCH  23  24
ATOM     24  C   UNL     1      87.900  52.977  41.403  1.00  0.00    -0.001 A 
ATOM     25  C   UNL     1      89.184  52.555  41.785  1.00  0.00     0.008 A 
ATOM     26  C   UNL     1      87.597  53.016  40.037  1.00  0.00     0.119 A 
ATOM     27  C   UNL     1      90.133  52.194  40.827  1.00  0.00     0.001 A 
ATOM     28  C   UNL     1      88.541  52.657  39.074  1.00  0.00     0.046 A 
ATOM     29  C   UNL     1      89.813  52.246  39.472  1.00  0.00     0.004 A 
BRANCH  26  30
ATOM     30  O   UNL     1      86.343  53.404  39.648  1.00  0.00    -0.508 OA
ATOM     31  H   UNL     1      85.758  52.626  39.703  1.00  0.00     0.293 HD
ENDBRANCH  26  30
ENDBRANCH  23  24
ENDBRANCH   3  23
BRANCH   4  32
ATOM     32  O   UNL     1      84.246  53.488  41.530  1.00  0.00    -0.507 OA
ATOM     33  H   UNL     1      84.660  54.279  41.944  1.00  0.00     0.293 HD
ENDBRANCH   4  32
BRANCH   8  34
ATOM     34  C   UNL     1      80.835  48.454  43.827  1.00  0.00    -0.007 A 
ATOM     35  C   UNL     1      81.391  47.166  43.788  1.00  0.00     0.007 A 
ATOM     36  C   UNL     1      79.476  48.592  44.159  1.00  0.00     0.007 A 
ATOM     37  C   UNL     1      80.605  46.045  44.067  1.00  0.00     0.000 A 
ATOM     38  C   UNL     1      78.694  47.471  44.436  1.00  0.00     0.000 A 
ATOM     39  C   UNL     1      79.259  46.198  44.391  1.00  0.00     0.000 A 
ENDBRANCH   8  34
TORSDOF 9
ENDMDL
MODEL 9
REMARK VINA RESULT:    -9.490      2.773      8.470
REMARK INTER + INTRA:         -14.724
REMARK INTER:                 -13.373
REMARK INTRA:                  -1.351
REMARK UNBOUND:                -1.351
REMARK SMILES O=C1C[C@@H](c2ccccc2)Oc2c(Cc3ccccc3O)c(O)c(Cc3ccccc3O)c(O)c21
REMARK SMILES IDX 13 1 22 2 24 3 33 4 35 5 12 6 11 7 4 8 3 9 2 10 1 11 14 12
REMARK SMILES IDX 15 13 20 14 19 15 18 16 16 17 17 18 21 19 23 21 25 23 26 24
REMARK SMILES IDX 27 25 31 26 28 27 30 28 29 29 32 30 34 32 5 34 6 35 10 36
REMARK SMILES IDX 7 37 9 38 8 39
REMARK H PARENT 21 20 23 22 32 31 34 33
ROOT
ATOM      1  C   UNL     1      84.727  48.566  43.823  1.00  0.00     0.042 A 
ATOM      2  C   UNL     1      85.135  47.476  43.029  1.00  0.00     0.130 A 
ATOM      3  C   UNL     1      86.484  47.251  42.694  1.00  0.00     0.041 A 
ATOM      4  C   UNL     1      87.438  48.156  43.186  1.00  0.00     0.137 A 
ATOM      5  C   UNL     1      87.054  49.247  43.980  1.00  0.00     0.102 A 
ATOM      6  C   UNL     1      85.710  49.443  44.309  1.00  0.00     0.142 A 
ATOM      7  O   UNL     1      85.287  50.492  45.088  1.00  0.00    -0.484 OA
ATOM      8  C   UNL     1      86.298  51.016  45.960  1.00  0.00     0.211 C 
ATOM      9  C   UNL     1      87.520  51.445  45.167  1.00  0.00     0.131 C 
ATOM     10  C   UNL     1      88.046  50.238  44.450  1.00  0.00     0.174 C 
ATOM     11  O   UNL     1      89.239  50.080  44.201  1.00  0.00    -0.294 OA
ENDROOT
BRANCH   1  12
ATOM     12  C   UNL     1      83.260  48.787  44.145  1.00  0.00     0.082 C 
BRANCH  12  13
ATOM     13  C   UNL     1      82.592  49.858  43.311  1.00  0.00    -0.001 A 
ATOM     14  C   UNL     1      81.223  49.863  43.015  1.00  0.00     0.119 A 
ATOM     15  C   UNL     1      80.653  50.888  42.260  1.00  0.00     0.046 A 
ATOM     16  C   UNL     1      81.446  51.925  41.774  1.00  0.00     0.004 A 
ATOM     17  C   UNL     1      83.376  50.916  42.813  1.00  0.00     0.008 A 
ATOM     18  C   UNL     1      82.809  51.939  42.049  1.00  0.00     0.001 A 
BRANCH  14  19
ATOM     19  O   UNL     1      80.357  48.898  43.446  1.00  0.00    -0.508 OA
ATOM     20  H   UNL     1      80.806  48.029  43.435  1.00  0.00     0.293 HD
ENDBRANCH  14  19
ENDBRANCH  12  13
ENDBRANCH   1  12
BRANCH   2  21
ATOM     21  O   UNL     1      84.139  46.649  42.570  1.00  0.00    -0.507 OA
ATOM     22  H   UNL     1      83.309  46.847  43.057  1.00  0.00     0.293 HD
ENDBRANCH   2  21
BRANCH   3  23
ATOM     23  C   UNL     1      86.914  46.089  41.820  1.00  0.00     0.082 C 
BRANCH  23  24
ATOM     24  C   UNL     1      87.323  44.857  42.598  1.00  0.00    -0.001 A 
ATOM     25  C   UNL     1      86.337  43.979  43.076  1.00  0.00     0.008 A 
ATOM     26  C   UNL     1      88.664  44.549  42.857  1.00  0.00     0.119 A 
ATOM     27  C   UNL     1      86.686  42.835  43.796  1.00  0.00     0.001 A 
ATOM     28  C   UNL     1      89.020  43.408  43.577  1.00  0.00     0.046 A 
ATOM     29  C   UNL     1      88.026  42.550  44.047  1.00  0.00     0.004 A 
BRANCH  26  30
ATOM     30  O   UNL     1      89.639  45.384  42.380  1.00  0.00    -0.508 OA
ATOM     31  H   UNL     1      90.196  45.654  43.133  1.00  0.00     0.293 HD
ENDBRANCH  26  30
ENDBRANCH  23  24
ENDBRANCH   3  23
BRANCH   4  32
ATOM     32  O   UNL     1      88.754  47.947  42.848  1.00  0.00    -0.507 OA
ATOM     33  H   UNL     1      88.957  46.989  42.954  1.00  0.00     0.293 HD
ENDBRANCH   4  32
BRANCH   8  34
ATOM     34  C   UNL     1      85.707  52.187  46.719  1.00  0.00    -0.007 A 
ATOM     35  C   UNL     1      85.917  52.311  48.101  1.00  0.00     0.007 A 
ATOM     36  C   UNL     1      84.962  53.179  46.059  1.00  0.00     0.007 A 
ATOM     37  C   UNL     1      85.389  53.395  48.805  1.00  0.00     0.000 A 
ATOM     38  C   UNL     1      84.435  54.261  46.765  1.00  0.00     0.000 A 
ATOM     39  C   UNL     1      84.650  54.369  48.137  1.00  0.00     0.000 A 
ENDBRANCH   8  34
TORSDOF 9
ENDMDL
