MODEL 1
REMARK VINA RESULT:    -9.454      0.000      0.000
REMARK INTER + INTRA:         -13.827
REMARK INTER:                 -12.758
REMARK INTRA:                  -1.069
REMARK UNBOUND:                -1.057
REMARK SMILES CC(C)=CCc1cc(-c2coc3c(CC=C(C)C)c(O)ccc3c2=O)ccc1O
REMARK SMILES IDX 9 1 10 2 11 3 12 4 23 5 24 6 25 7 22 8 21 9 19 10 13 11 8 12
REMARK SMILES IDX 6 13 7 14 28 15 27 16 26 17 5 18 4 19 2 20 1 21 3 22 29 23
REMARK SMILES IDX 14 25 15 26 16 27 17 28 18 29 20 30
REMARK H PARENT 29 24 20 31
ROOT
ATOM      1  C   UNL     1      86.033  52.828  43.105  1.00  0.00     0.065 C 
ATOM      2  C   UNL     1      87.129  52.587  42.368  1.00  0.00     0.208 C 
ATOM      3  O   UNL     1      87.626  51.361  42.004  1.00  0.00    -0.463 OA
ATOM      4  C   UNL     1      86.962  50.233  42.429  1.00  0.00     0.144 A 
ATOM      5  C   UNL     1      85.796  50.317  43.194  1.00  0.00     0.066 A 
ATOM      6  C   UNL     1      85.258  51.642  43.561  1.00  0.00     0.200 C 
ATOM      7  O   UNL     1      84.224  51.736  44.211  1.00  0.00    -0.288 OA
ATOM      8  C   UNL     1      85.140  49.156  43.611  1.00  0.00     0.020 A 
ATOM      9  C   UNL     1      85.664  47.913  43.270  1.00  0.00     0.047 A 
ATOM     10  C   UNL     1      86.835  47.828  42.515  1.00  0.00     0.122 A 
ATOM     11  C   UNL     1      87.499  48.981  42.064  1.00  0.00     0.041 A 
ENDROOT
BRANCH   1  12
ATOM     12  C   UNL     1      85.619  54.211  43.404  1.00  0.00    -0.011 A 
ATOM     13  C   UNL     1      85.444  56.091  44.972  1.00  0.00    -0.002 A 
ATOM     14  C   UNL     1      85.825  54.769  44.678  1.00  0.00     0.016 A 
ATOM     15  C   UNL     1      84.848  56.852  43.961  1.00  0.00     0.119 A 
ATOM     16  C   UNL     1      84.626  56.314  42.696  1.00  0.00     0.047 A 
ATOM     17  C   UNL     1      85.009  54.999  42.420  1.00  0.00     0.013 A 
BRANCH  13  18
ATOM     18  C   UNL     1      85.705  56.656  46.349  1.00  0.00     0.066 C 
BRANCH  18  19
ATOM     19  C   UNL     1      86.017  55.584  47.361  1.00  0.00    -0.023 C 
ATOM     20  C   UNL     1      85.153  54.805  48.043  1.00  0.00    -0.080 C 
ATOM     21  C   UNL     1      85.657  53.767  49.011  1.00  0.00     0.039 C 
ATOM     22  C   UNL     1      83.655  54.879  47.946  1.00  0.00     0.039 C 
ENDBRANCH  18  19
ENDBRANCH  13  18
BRANCH  15  23
ATOM     23  O   UNL     1      84.472  58.138  44.229  1.00  0.00    -0.508 OA
ATOM     24  H   UNL     1      85.019  58.740  43.699  1.00  0.00     0.293 HD
ENDBRANCH  15  23
ENDBRANCH   1  12
BRANCH  11  25
ATOM     25  C   UNL     1      88.762  48.915  41.232  1.00  0.00     0.070 C 
BRANCH  25  26
ATOM     26  C   UNL     1      89.995  49.192  42.051  1.00  0.00    -0.023 C 
ATOM     27  C   UNL     1      90.782  48.307  42.698  1.00  0.00    -0.080 C 
ATOM     28  C   UNL     1      91.988  48.780  43.469  1.00  0.00     0.039 C 
ATOM     29  C   UNL     1      90.583  46.817  42.730  1.00  0.00     0.039 C 
ENDBRANCH  25  26
ENDBRANCH  11  25
BRANCH  10  30
ATOM     30  O   UNL     1      87.271  46.558  42.261  1.00  0.00    -0.508 OA
ATOM     31  H   UNL     1      86.543  45.927  42.362  1.00  0.00     0.293 HD
ENDBRANCH  10  30
TORSDOF 7
ENDMDL
MODEL 2
REMARK VINA RESULT:    -9.383      2.835      8.293
REMARK INTER + INTRA:         -13.731
REMARK INTER:                 -12.745
REMARK INTRA:                  -0.986
REMARK UNBOUND:                -1.057
REMARK SMILES CC(C)=CCc1cc(-c2coc3c(CC=C(C)C)c(O)ccc3c2=O)ccc1O
REMARK SMILES IDX 9 1 10 2 11 3 12 4 23 5 24 6 25 7 22 8 21 9 19 10 13 11 8 12
REMARK SMILES IDX 6 13 7 14 28 15 27 16 26 17 5 18 4 19 2 20 1 21 3 22 29 23
REMARK SMILES IDX 14 25 15 26 16 27 17 28 18 29 20 30
REMARK H PARENT 29 24 20 31
ROOT
ATOM      1  C   UNL     1      83.430  50.885  43.733  1.00  0.00     0.065 C 
ATOM      2  C   UNL     1      84.163  51.193  44.814  1.00  0.00     0.208 C 
ATOM      3  O   UNL     1      84.857  52.356  45.037  1.00  0.00    -0.463 OA
ATOM      4  C   UNL     1      84.832  53.330  44.065  1.00  0.00     0.144 A 
ATOM      5  C   UNL     1      84.102  53.165  42.885  1.00  0.00     0.066 A 
ATOM      6  C   UNL     1      83.341  51.920  42.666  1.00  0.00     0.200 C 
ATOM      7  O   UNL     1      82.676  51.767  41.649  1.00  0.00    -0.288 OA
ATOM      8  C   UNL     1      84.091  54.171  41.916  1.00  0.00     0.020 A 
ATOM      9  C   UNL     1      84.823  55.335  42.128  1.00  0.00     0.047 A 
ATOM     10  C   UNL     1      85.561  55.497  43.301  1.00  0.00     0.122 A 
ATOM     11  C   UNL     1      85.569  54.510  44.302  1.00  0.00     0.041 A 
ENDROOT
BRANCH   1  12
ATOM     12  C   UNL     1      82.729  49.591  43.646  1.00  0.00    -0.011 A 
ATOM     13  C   UNL     1      82.786  47.146  43.442  1.00  0.00    -0.002 A 
ATOM     14  C   UNL     1      83.444  48.388  43.515  1.00  0.00     0.016 A 
ATOM     15  C   UNL     1      81.389  47.129  43.503  1.00  0.00     0.119 A 
ATOM     16  C   UNL     1      80.662  48.311  43.622  1.00  0.00     0.047 A 
ATOM     17  C   UNL     1      81.331  49.536  43.691  1.00  0.00     0.013 A 
BRANCH  13  18
ATOM     18  C   UNL     1      83.597  45.875  43.324  1.00  0.00     0.066 C 
BRANCH  18  19
ATOM     19  C   UNL     1      84.969  46.121  42.751  1.00  0.00    -0.023 C 
ATOM     20  C   UNL     1      86.101  45.422  42.969  1.00  0.00    -0.080 C 
ATOM     21  C   UNL     1      87.387  45.813  42.288  1.00  0.00     0.039 C 
ATOM     22  C   UNL     1      86.226  44.236  43.885  1.00  0.00     0.039 C 
ENDBRANCH  18  19
ENDBRANCH  13  18
BRANCH  15  23
ATOM     23  O   UNL     1      80.734  45.932  43.433  1.00  0.00    -0.508 OA
ATOM     24  H   UNL     1      81.389  45.215  43.453  1.00  0.00     0.293 HD
ENDBRANCH  15  23
ENDBRANCH   1  12
BRANCH  11  25
ATOM     25  C   UNL     1      86.349  54.667  45.589  1.00  0.00     0.070 C 
BRANCH  25  26
ATOM     26  C   UNL     1      85.468  55.073  46.740  1.00  0.00    -0.023 C 
ATOM     27  C   UNL     1      85.199  54.385  47.870  1.00  0.00    -0.080 C 
ATOM     28  C   UNL     1      84.286  54.966  48.919  1.00  0.00     0.039 C 
ATOM     29  C   UNL     1      85.750  53.031  48.221  1.00  0.00     0.039 C 
ENDBRANCH  25  26
ENDBRANCH  11  25
BRANCH  10  30
ATOM     30  O   UNL     1      86.262  56.667  43.391  1.00  0.00    -0.508 OA
ATOM     31  H   UNL     1      86.028  57.254  42.656  1.00  0.00     0.293 HD
ENDBRANCH  10  30
TORSDOF 7
ENDMDL
MODEL 3
REMARK VINA RESULT:    -9.323      2.548      3.094
REMARK INTER + INTRA:         -13.650
REMARK INTER:                 -12.752
REMARK INTRA:                  -0.898
REMARK UNBOUND:                -1.057
REMARK SMILES CC(C)=CCc1cc(-c2coc3c(CC=C(C)C)c(O)ccc3c2=O)ccc1O
REMARK SMILES IDX 9 1 10 2 11 3 12 4 23 5 24 6 25 7 22 8 21 9 19 10 13 11 8 12
REMARK SMILES IDX 6 13 7 14 28 15 27 16 26 17 5 18 4 19 2 20 1 21 3 22 29 23
REMARK SMILES IDX 14 25 15 26 16 27 17 28 18 29 20 30
REMARK H PARENT 29 24 20 31
ROOT
ATOM      1  C   UNL     1      84.432  52.077  43.398  1.00  0.00     0.065 C 
ATOM      2  C   UNL     1      85.444  51.302  43.820  1.00  0.00     0.208 C 
ATOM      3  O   UNL     1      85.440  49.935  43.943  1.00  0.00    -0.463 OA
ATOM      4  C   UNL     1      84.292  49.251  43.619  1.00  0.00     0.144 A 
ATOM      5  C   UNL     1      83.155  49.915  43.151  1.00  0.00     0.066 A 
ATOM      6  C   UNL     1      83.177  51.382  43.000  1.00  0.00     0.200 C 
ATOM      7  O   UNL     1      82.198  51.979  42.568  1.00  0.00    -0.288 OA
ATOM      8  C   UNL     1      82.002  49.196  42.826  1.00  0.00     0.020 A 
ATOM      9  C   UNL     1      81.988  47.813  42.985  1.00  0.00     0.047 A 
ATOM     10  C   UNL     1      83.120  47.150  43.463  1.00  0.00     0.122 A 
ATOM     11  C   UNL     1      84.299  47.849  43.773  1.00  0.00     0.041 A 
ENDROOT
BRANCH   1  12
ATOM     12  C   UNL     1      84.595  53.539  43.307  1.00  0.00    -0.011 A 
ATOM     13  C   UNL     1      85.146  55.690  44.353  1.00  0.00    -0.002 A 
ATOM     14  C   UNL     1      84.977  54.295  44.429  1.00  0.00     0.016 A 
ATOM     15  C   UNL     1      84.924  56.321  43.125  1.00  0.00     0.119 A 
ATOM     16  C   UNL     1      84.535  55.591  42.004  1.00  0.00     0.047 A 
ATOM     17  C   UNL     1      84.370  54.207  42.097  1.00  0.00     0.013 A 
BRANCH  13  18
ATOM     18  C   UNL     1      85.579  56.460  45.580  1.00  0.00     0.066 C 
BRANCH  18  19
ATOM     19  C   UNL     1      85.968  55.553  46.719  1.00  0.00    -0.023 C 
ATOM     20  C   UNL     1      85.173  55.010  47.661  1.00  0.00    -0.080 C 
ATOM     21  C   UNL     1      85.746  54.107  48.722  1.00  0.00     0.039 C 
ATOM     22  C   UNL     1      83.691  55.235  47.781  1.00  0.00     0.039 C 
ENDBRANCH  18  19
ENDBRANCH  13  18
BRANCH  15  23
ATOM     23  O   UNL     1      85.083  57.675  43.032  1.00  0.00    -0.508 OA
ATOM     24  H   UNL     1      85.985  57.863  42.726  1.00  0.00     0.293 HD
ENDBRANCH  15  23
ENDBRANCH   1  12
BRANCH  11  25
ATOM     25  C   UNL     1      85.544  47.152  44.279  1.00  0.00     0.070 C 
BRANCH  25  26
ATOM     26  C   UNL     1      86.294  46.457  43.174  1.00  0.00    -0.023 C 
ATOM     27  C   UNL     1      86.532  45.137  43.029  1.00  0.00    -0.080 C 
ATOM     28  C   UNL     1      87.306  44.626  41.841  1.00  0.00     0.039 C 
ATOM     29  C   UNL     1      86.076  44.057  43.971  1.00  0.00     0.039 C 
ENDBRANCH  25  26
ENDBRANCH  11  25
BRANCH  10  30
ATOM     30  O   UNL     1      82.985  45.798  43.603  1.00  0.00    -0.508 OA
ATOM     31  H   UNL     1      83.634  45.461  44.239  1.00  0.00     0.293 HD
ENDBRANCH  10  30
TORSDOF 7
ENDMDL
MODEL 4
REMARK VINA RESULT:    -9.276      4.368      6.804
REMARK INTER + INTRA:         -13.586
REMARK INTER:                 -12.887
REMARK INTRA:                  -0.699
REMARK UNBOUND:                -1.057
REMARK SMILES CC(C)=CCc1cc(-c2coc3c(CC=C(C)C)c(O)ccc3c2=O)ccc1O
REMARK SMILES IDX 9 1 10 2 11 3 12 4 23 5 24 6 25 7 22 8 21 9 19 10 13 11 8 12
REMARK SMILES IDX 6 13 7 14 28 15 27 16 26 17 5 18 4 19 2 20 1 21 3 22 29 23
REMARK SMILES IDX 14 25 15 26 16 27 17 28 18 29 20 30
REMARK H PARENT 29 24 20 31
ROOT
ATOM      1  C   UNL     1      83.493  49.460  43.411  1.00  0.00     0.065 C 
ATOM      2  C   UNL     1      84.675  48.960  43.801  1.00  0.00     0.208 C 
ATOM      3  O   UNL     1      85.911  49.530  43.626  1.00  0.00    -0.463 OA
ATOM      4  C   UNL     1      85.988  50.740  42.976  1.00  0.00     0.144 A 
ATOM      5  C   UNL     1      84.842  51.397  42.519  1.00  0.00     0.066 A 
ATOM      6  C   UNL     1      83.516  50.786  42.733  1.00  0.00     0.200 C 
ATOM      7  O   UNL     1      82.499  51.357  42.360  1.00  0.00    -0.288 OA
ATOM      8  C   UNL     1      84.948  52.626  41.863  1.00  0.00     0.020 A 
ATOM      9  C   UNL     1      86.205  53.187  41.656  1.00  0.00     0.047 A 
ATOM     10  C   UNL     1      87.350  52.527  42.103  1.00  0.00     0.122 A 
ATOM     11  C   UNL     1      87.268  51.301  42.786  1.00  0.00     0.041 A 
ENDROOT
BRANCH   1  12
ATOM     12  C   UNL     1      82.242  48.729  43.684  1.00  0.00    -0.011 A 
ATOM     13  C   UNL     1      79.979  48.659  44.632  1.00  0.00    -0.002 A 
ATOM     14  C   UNL     1      81.182  49.342  44.375  1.00  0.00     0.016 A 
ATOM     15  C   UNL     1      79.854  47.341  44.182  1.00  0.00     0.119 A 
ATOM     16  C   UNL     1      80.896  46.713  43.504  1.00  0.00     0.047 A 
ATOM     17  C   UNL     1      82.084  47.405  43.258  1.00  0.00     0.013 A 
BRANCH  13  18
ATOM     18  C   UNL     1      78.858  49.365  45.359  1.00  0.00     0.066 C 
BRANCH  18  19
ATOM     19  C   UNL     1      78.194  50.417  44.509  1.00  0.00    -0.023 C 
ATOM     20  C   UNL     1      76.888  50.748  44.460  1.00  0.00    -0.080 C 
ATOM     21  C   UNL     1      76.409  51.848  43.549  1.00  0.00     0.039 C 
ATOM     22  C   UNL     1      75.795  50.087  45.253  1.00  0.00     0.039 C 
ENDBRANCH  18  19
ENDBRANCH  13  18
BRANCH  15  23
ATOM     23  O   UNL     1      78.693  46.662  44.422  1.00  0.00    -0.508 OA
ATOM     24  H   UNL     1      77.943  47.261  44.271  1.00  0.00     0.293 HD
ENDBRANCH  15  23
ENDBRANCH   1  12
BRANCH  11  25
ATOM     25  C   UNL     1      88.494  50.572  43.292  1.00  0.00     0.070 C 
BRANCH  25  26
ATOM     26  C   UNL     1      88.949  49.498  42.341  1.00  0.00    -0.023 C 
ATOM     27  C   UNL     1      90.008  48.670  42.461  1.00  0.00    -0.080 C 
ATOM     28  C   UNL     1      90.300  47.645  41.395  1.00  0.00     0.039 C 
ATOM     29  C   UNL     1      90.976  48.649  43.611  1.00  0.00     0.039 C 
ENDBRANCH  25  26
ENDBRANCH  11  25
BRANCH  10  30
ATOM     30  O   UNL     1      88.531  53.156  41.822  1.00  0.00    -0.508 OA
ATOM     31  H   UNL     1      89.005  53.357  42.643  1.00  0.00     0.293 HD
ENDBRANCH  10  30
TORSDOF 7
ENDMDL
MODEL 5
REMARK VINA RESULT:    -9.229      2.191      8.125
REMARK INTER + INTRA:         -13.522
REMARK INTER:                 -12.291
REMARK INTRA:                  -1.231
REMARK UNBOUND:                -1.057
REMARK SMILES CC(C)=CCc1cc(-c2coc3c(CC=C(C)C)c(O)ccc3c2=O)ccc1O
REMARK SMILES IDX 9 1 10 2 11 3 12 4 23 5 24 6 25 7 22 8 21 9 19 10 13 11 8 12
REMARK SMILES IDX 6 13 7 14 28 15 27 16 26 17 5 18 4 19 2 20 1 21 3 22 29 23
REMARK SMILES IDX 14 25 15 26 16 27 17 28 18 29 20 30
REMARK H PARENT 29 24 20 31
ROOT
ATOM      1  C   UNL     1      86.261  51.210  44.685  1.00  0.00     0.065 C 
ATOM      2  C   UNL     1      85.618  52.276  44.184  1.00  0.00     0.208 C 
ATOM      3  O   UNL     1      85.062  53.313  44.891  1.00  0.00    -0.463 OA
ATOM      4  C   UNL     1      85.146  53.287  46.264  1.00  0.00     0.144 A 
ATOM      5  C   UNL     1      85.797  52.250  46.937  1.00  0.00     0.066 A 
ATOM      6  C   UNL     1      86.410  51.152  46.165  1.00  0.00     0.200 C 
ATOM      7  O   UNL     1      87.005  50.246  46.736  1.00  0.00    -0.288 OA
ATOM      8  C   UNL     1      85.869  52.250  48.332  1.00  0.00     0.020 A 
ATOM      9  C   UNL     1      85.276  53.285  49.049  1.00  0.00     0.047 A 
ATOM     10  C   UNL     1      84.616  54.316  48.379  1.00  0.00     0.122 A 
ATOM     11  C   UNL     1      84.551  54.351  46.975  1.00  0.00     0.041 A 
ENDROOT
BRANCH   1  12
ATOM     12  C   UNL     1      86.816  50.178  43.789  1.00  0.00    -0.011 A 
ATOM     13  C   UNL     1      88.556  49.420  42.233  1.00  0.00    -0.002 A 
ATOM     14  C   UNL     1      88.011  50.401  43.083  1.00  0.00     0.016 A 
ATOM     15  C   UNL     1      87.879  48.203  42.102  1.00  0.00     0.119 A 
ATOM     16  C   UNL     1      86.688  47.968  42.785  1.00  0.00     0.047 A 
ATOM     17  C   UNL     1      86.160  48.953  43.623  1.00  0.00     0.013 A 
BRANCH  13  18
ATOM     18  C   UNL     1      89.855  49.694  41.511  1.00  0.00     0.066 C 
BRANCH  18  19
ATOM     19  C   UNL     1      90.191  51.163  41.469  1.00  0.00    -0.023 C 
ATOM     20  C   UNL     1      89.773  52.089  40.584  1.00  0.00    -0.080 C 
ATOM     21  C   UNL     1      90.207  53.526  40.714  1.00  0.00     0.039 C 
ATOM     22  C   UNL     1      88.881  51.820  39.403  1.00  0.00     0.039 C 
ENDBRANCH  18  19
ENDBRANCH  13  18
BRANCH  15  23
ATOM     23  O   UNL     1      88.394  47.240  41.281  1.00  0.00    -0.508 OA
ATOM     24  H   UNL     1      87.869  47.212  40.464  1.00  0.00     0.293 HD
ENDBRANCH  15  23
ENDBRANCH   1  12
BRANCH  11  25
ATOM     25  C   UNL     1      83.854  55.464  46.224  1.00  0.00     0.070 C 
BRANCH  25  26
ATOM     26  C   UNL     1      84.817  56.522  45.755  1.00  0.00    -0.023 C 
ATOM     27  C   UNL     1      85.048  56.940  44.493  1.00  0.00    -0.080 C 
ATOM     28  C   UNL     1      86.059  58.024  44.221  1.00  0.00     0.039 C 
ATOM     29  C   UNL     1      84.361  56.422  43.260  1.00  0.00     0.039 C 
ENDBRANCH  25  26
ENDBRANCH  11  25
BRANCH  10  30
ATOM     30  O   UNL     1      84.049  55.263  49.184  1.00  0.00    -0.508 OA
ATOM     31  H   UNL     1      84.726  55.675  49.742  1.00  0.00     0.293 HD
ENDBRANCH  10  30
TORSDOF 7
ENDMDL
MODEL 6
REMARK VINA RESULT:    -9.104      2.390      8.361
REMARK INTER + INTRA:         -13.354
REMARK INTER:                 -12.199
REMARK INTRA:                  -1.154
REMARK UNBOUND:                -1.057
REMARK SMILES CC(C)=CCc1cc(-c2coc3c(CC=C(C)C)c(O)ccc3c2=O)ccc1O
REMARK SMILES IDX 9 1 10 2 11 3 12 4 23 5 24 6 25 7 22 8 21 9 19 10 13 11 8 12
REMARK SMILES IDX 6 13 7 14 28 15 27 16 26 17 5 18 4 19 2 20 1 21 3 22 29 23
REMARK SMILES IDX 14 25 15 26 16 27 17 28 18 29 20 30
REMARK H PARENT 29 24 20 31
ROOT
ATOM      1  C   UNL     1      87.294  50.895  44.392  1.00  0.00     0.065 C 
ATOM      2  C   UNL     1      86.563  51.883  43.852  1.00  0.00     0.208 C 
ATOM      3  O   UNL     1      85.818  52.820  44.523  1.00  0.00    -0.463 OA
ATOM      4  C   UNL     1      85.782  52.766  45.897  1.00  0.00     0.144 A 
ATOM      5  C   UNL     1      86.501  51.803  46.610  1.00  0.00     0.066 A 
ATOM      6  C   UNL     1      87.318  50.814  45.879  1.00  0.00     0.200 C 
ATOM      7  O   UNL     1      87.974  49.977  46.487  1.00  0.00    -0.288 OA
ATOM      8  C   UNL     1      86.449  51.773  48.005  1.00  0.00     0.020 A 
ATOM      9  C   UNL     1      85.666  52.702  48.683  1.00  0.00     0.047 A 
ATOM     10  C   UNL     1      84.939  53.658  47.972  1.00  0.00     0.122 A 
ATOM     11  C   UNL     1      84.993  53.724  46.569  1.00  0.00     0.041 A 
ENDROOT
BRANCH   1  12
ATOM     12  C   UNL     1      88.055  49.968  43.534  1.00  0.00    -0.011 A 
ATOM     13  C   UNL     1      88.257  47.811  42.382  1.00  0.00    -0.002 A 
ATOM     14  C   UNL     1      87.545  48.699  43.210  1.00  0.00     0.016 A 
ATOM     15  C   UNL     1      89.498  48.218  41.881  1.00  0.00     0.119 A 
ATOM     16  C   UNL     1      90.024  49.467  42.200  1.00  0.00     0.047 A 
ATOM     17  C   UNL     1      89.305  50.337  43.024  1.00  0.00     0.013 A 
BRANCH  13  18
ATOM     18  C   UNL     1      87.661  46.464  42.042  1.00  0.00     0.066 C 
BRANCH  18  19
ATOM     19  C   UNL     1      86.404  46.179  42.823  1.00  0.00    -0.023 C 
ATOM     20  C   UNL     1      86.140  45.128  43.625  1.00  0.00    -0.080 C 
ATOM     21  C   UNL     1      84.819  45.021  44.341  1.00  0.00     0.039 C 
ATOM     22  C   UNL     1      87.074  43.977  43.882  1.00  0.00     0.039 C 
ENDBRANCH  18  19
ENDBRANCH  13  18
BRANCH  15  23
ATOM     23  O   UNL     1      90.203  47.368  41.077  1.00  0.00    -0.508 OA
ATOM     24  H   UNL     1      90.523  46.624  41.613  1.00  0.00     0.293 HD
ENDBRANCH  15  23
ENDBRANCH   1  12
BRANCH  11  25
ATOM     25  C   UNL     1      84.226  54.760  45.776  1.00  0.00     0.070 C 
BRANCH  25  26
ATOM     26  C   UNL     1      85.057  55.981  45.485  1.00  0.00    -0.023 C 
ATOM     27  C   UNL     1      85.179  56.649  44.319  1.00  0.00    -0.080 C 
ATOM     28  C   UNL     1      86.065  57.865  44.225  1.00  0.00     0.039 C 
ATOM     29  C   UNL     1      84.483  56.300  43.033  1.00  0.00     0.039 C 
ENDBRANCH  25  26
ENDBRANCH  11  25
BRANCH  10  30
ATOM     30  O   UNL     1      84.185  54.503  48.738  1.00  0.00    -0.508 OA
ATOM     31  H   UNL     1      83.752  54.010  49.451  1.00  0.00     0.293 HD
ENDBRANCH  10  30
TORSDOF 7
ENDMDL
MODEL 7
REMARK VINA RESULT:    -9.055      1.678      2.971
REMARK INTER + INTRA:         -13.288
REMARK INTER:                 -12.876
REMARK INTRA:                  -0.413
REMARK UNBOUND:                -1.057
REMARK SMILES CC(C)=CCc1cc(-c2coc3c(CC=C(C)C)c(O)ccc3c2=O)ccc1O
REMARK SMILES IDX 9 1 10 2 11 3 12 4 23 5 24 6 25 7 22 8 21 9 19 10 13 11 8 12
REMARK SMILES IDX 6 13 7 14 28 15 27 16 26 17 5 18 4 19 2 20 1 21 3 22 29 23
REMARK SMILES IDX 14 25 15 26 16 27 17 28 18 29 20 30
REMARK H PARENT 29 24 20 31
ROOT
ATOM      1  C   UNL     1      86.677  52.241  42.545  1.00  0.00     0.065 C 
ATOM      2  C   UNL     1      85.986  51.096  42.655  1.00  0.00     0.208 C 
ATOM      3  O   UNL     1      86.462  49.823  42.468  1.00  0.00    -0.463 OA
ATOM      4  C   UNL     1      87.783  49.662  42.118  1.00  0.00     0.144 A 
ATOM      5  C   UNL     1      88.639  50.758  41.977  1.00  0.00     0.066 A 
ATOM      6  C   UNL     1      88.122  52.121  42.203  1.00  0.00     0.200 C 
ATOM      7  O   UNL     1      88.862  53.093  42.107  1.00  0.00    -0.288 OA
ATOM      8  C   UNL     1      89.977  50.567  41.623  1.00  0.00     0.020 A 
ATOM      9  C   UNL     1      90.450  49.277  41.400  1.00  0.00     0.047 A 
ATOM     10  C   UNL     1      89.593  48.183  41.531  1.00  0.00     0.122 A 
ATOM     11  C   UNL     1      88.250  48.347  41.908  1.00  0.00     0.041 A 
ENDROOT
BRANCH   1  12
ATOM     12  C   UNL     1      86.024  53.539  42.791  1.00  0.00    -0.011 A 
ATOM     13  C   UNL     1      85.644  55.496  44.222  1.00  0.00    -0.002 A 
ATOM     14  C   UNL     1      86.253  54.251  43.981  1.00  0.00     0.016 A 
ATOM     15  C   UNL     1      84.794  56.021  43.244  1.00  0.00     0.119 A 
ATOM     16  C   UNL     1      84.545  55.327  42.062  1.00  0.00     0.047 A 
ATOM     17  C   UNL     1      85.157  54.091  41.839  1.00  0.00     0.013 A 
BRANCH  13  18
ATOM     18  C   UNL     1      85.937  56.236  45.507  1.00  0.00     0.066 C 
BRANCH  18  19
ATOM     19  C   UNL     1      86.155  55.304  46.671  1.00  0.00    -0.023 C 
ATOM     20  C   UNL     1      85.250  54.865  47.569  1.00  0.00    -0.080 C 
ATOM     21  C   UNL     1      85.655  53.914  48.665  1.00  0.00     0.039 C 
ATOM     22  C   UNL     1      83.799  55.259  47.602  1.00  0.00     0.039 C 
ENDBRANCH  18  19
ENDBRANCH  13  18
BRANCH  15  23
ATOM     23  O   UNL     1      84.193  57.229  43.462  1.00  0.00    -0.508 OA
ATOM     24  H   UNL     1      84.251  57.757  42.648  1.00  0.00     0.293 HD
ENDBRANCH  15  23
ENDBRANCH   1  12
BRANCH  11  25
ATOM     25  C   UNL     1      87.304  47.177  42.071  1.00  0.00     0.070 C 
BRANCH  25  26
ATOM     26  C   UNL     1      88.015  45.935  42.539  1.00  0.00    -0.023 C 
ATOM     27  C   UNL     1      87.512  44.692  42.690  1.00  0.00    -0.080 C 
ATOM     28  C   UNL     1      88.391  43.565  43.170  1.00  0.00     0.039 C 
ATOM     29  C   UNL     1      86.093  44.282  42.406  1.00  0.00     0.039 C 
ENDBRANCH  25  26
ENDBRANCH  11  25
BRANCH  10  30
ATOM     30  O   UNL     1      90.158  46.968  41.263  1.00  0.00    -0.508 OA
ATOM     31  H   UNL     1      90.773  46.721  41.970  1.00  0.00     0.293 HD
ENDBRANCH  10  30
TORSDOF 7
ENDMDL
MODEL 8
REMARK VINA RESULT:    -8.779      3.445      7.921
REMARK INTER + INTRA:         -12.915
REMARK INTER:                 -11.858
REMARK INTRA:                  -1.057
REMARK UNBOUND:                -1.057
REMARK SMILES CC(C)=CCc1cc(-c2coc3c(CC=C(C)C)c(O)ccc3c2=O)ccc1O
REMARK SMILES IDX 9 1 10 2 11 3 12 4 23 5 24 6 25 7 22 8 21 9 19 10 13 11 8 12
REMARK SMILES IDX 6 13 7 14 28 15 27 16 26 17 5 18 4 19 2 20 1 21 3 22 29 23
REMARK SMILES IDX 14 25 15 26 16 27 17 28 18 29 20 30
REMARK H PARENT 29 24 20 31
ROOT
ATOM      1  C   UNL     1      82.596  50.368  43.420  1.00  0.00     0.065 C 
ATOM      2  C   UNL     1      83.774  50.716  43.959  1.00  0.00     0.208 C 
ATOM      3  O   UNL     1      84.496  51.855  43.703  1.00  0.00    -0.463 OA
ATOM      4  C   UNL     1      83.994  52.757  42.793  1.00  0.00     0.144 A 
ATOM      5  C   UNL     1      82.770  52.545  42.154  1.00  0.00     0.066 A 
ATOM      6  C   UNL     1      81.991  51.327  42.454  1.00  0.00     0.200 C 
ATOM      7  O   UNL     1      80.905  51.135  41.922  1.00  0.00    -0.288 OA
ATOM      8  C   UNL     1      82.282  53.478  41.235  1.00  0.00     0.020 A 
ATOM      9  C   UNL     1      83.031  54.616  40.951  1.00  0.00     0.047 A 
ATOM     10  C   UNL     1      84.259  54.823  41.580  1.00  0.00     0.122 A 
ATOM     11  C   UNL     1      84.759  53.912  42.525  1.00  0.00     0.041 A 
ENDROOT
BRANCH   1  12
ATOM     12  C   UNL     1      81.935  49.109  43.808  1.00  0.00    -0.011 A 
ATOM     13  C   UNL     1      81.921  46.657  43.921  1.00  0.00    -0.002 A 
ATOM     14  C   UNL     1      82.536  47.866  43.546  1.00  0.00     0.016 A 
ATOM     15  C   UNL     1      80.683  46.715  44.569  1.00  0.00     0.119 A 
ATOM     16  C   UNL     1      80.066  47.937  44.829  1.00  0.00     0.047 A 
ATOM     17  C   UNL     1      80.690  49.127  44.448  1.00  0.00     0.013 A 
BRANCH  13  18
ATOM     18  C   UNL     1      82.615  45.344  43.638  1.00  0.00     0.066 C 
BRANCH  18  19
ATOM     19  C   UNL     1      84.065  45.361  44.048  1.00  0.00    -0.023 C 
ATOM     20  C   UNL     1      85.125  44.858  43.385  1.00  0.00    -0.080 C 
ATOM     21  C   UNL     1      86.515  44.984  43.951  1.00  0.00     0.039 C 
ATOM     22  C   UNL     1      85.060  44.128  42.071  1.00  0.00     0.039 C 
ENDBRANCH  18  19
ENDBRANCH  13  18
BRANCH  15  23
ATOM     23  O   UNL     1      80.070  45.552  44.941  1.00  0.00    -0.508 OA
ATOM     24  H   UNL     1      80.312  44.855  44.308  1.00  0.00     0.293 HD
ENDBRANCH  15  23
ENDBRANCH   1  12
BRANCH  11  25
ATOM     25  C   UNL     1      86.081  54.121  43.232  1.00  0.00     0.070 C 
BRANCH  25  26
ATOM     26  C   UNL     1      87.246  53.632  42.413  1.00  0.00    -0.023 C 
ATOM     27  C   UNL     1      87.983  52.516  42.593  1.00  0.00    -0.080 C 
ATOM     28  C   UNL     1      89.118  52.192  41.656  1.00  0.00     0.039 C 
ATOM     29  C   UNL     1      87.780  51.499  43.682  1.00  0.00     0.039 C 
ENDBRANCH  25  26
ENDBRANCH  11  25
BRANCH  10  30
ATOM     30  O   UNL     1      84.919  55.960  41.205  1.00  0.00    -0.508 OA
ATOM     31  H   UNL     1      84.506  56.342  40.416  1.00  0.00     0.293 HD
ENDBRANCH  10  30
TORSDOF 7
ENDMDL
MODEL 9
REMARK VINA RESULT:    -8.579      1.344      3.354
REMARK INTER + INTRA:         -12.644
REMARK INTER:                 -12.009
REMARK INTRA:                  -0.636
REMARK UNBOUND:                -1.057
REMARK SMILES CC(C)=CCc1cc(-c2coc3c(CC=C(C)C)c(O)ccc3c2=O)ccc1O
REMARK SMILES IDX 9 1 10 2 11 3 12 4 23 5 24 6 25 7 22 8 21 9 19 10 13 11 8 12
REMARK SMILES IDX 6 13 7 14 28 15 27 16 26 17 5 18 4 19 2 20 1 21 3 22 29 23
REMARK SMILES IDX 14 25 15 26 16 27 17 28 18 29 20 30
REMARK H PARENT 29 24 20 31
ROOT
ATOM      1  C   UNL     1      86.037  52.836  43.313  1.00  0.00     0.065 C 
ATOM      2  C   UNL     1      85.409  51.833  43.946  1.00  0.00     0.208 C 
ATOM      3  O   UNL     1      85.677  50.492  43.837  1.00  0.00    -0.463 OA
ATOM      4  C   UNL     1      86.685  50.092  42.989  1.00  0.00     0.144 A 
ATOM      5  C   UNL     1      87.442  51.019  42.268  1.00  0.00     0.066 A 
ATOM      6  C   UNL     1      87.160  52.460  42.410  1.00  0.00     0.200 C 
ATOM      7  O   UNL     1      87.829  53.289  41.804  1.00  0.00    -0.288 OA
ATOM      8  C   UNL     1      88.461  50.586  41.415  1.00  0.00     0.020 A 
ATOM      9  C   UNL     1      88.710  49.224  41.280  1.00  0.00     0.047 A 
ATOM     10  C   UNL     1      87.947  48.297  41.991  1.00  0.00     0.122 A 
ATOM     11  C   UNL     1      86.932  48.708  42.873  1.00  0.00     0.041 A 
ENDROOT
BRANCH   1  12
ATOM     12  C   UNL     1      85.639  54.236  43.545  1.00  0.00    -0.011 A 
ATOM     13  C   UNL     1      85.408  56.165  45.046  1.00  0.00    -0.002 A 
ATOM     14  C   UNL     1      85.775  54.826  44.814  1.00  0.00     0.016 A 
ATOM     15  C   UNL     1      84.900  56.910  43.977  1.00  0.00     0.119 A 
ATOM     16  C   UNL     1      84.748  56.340  42.715  1.00  0.00     0.047 A 
ATOM     17  C   UNL     1      85.115  55.009  42.502  1.00  0.00     0.013 A 
BRANCH  13  18
ATOM     18  C   UNL     1      85.592  56.764  46.422  1.00  0.00     0.066 C 
BRANCH  18  19
ATOM     19  C   UNL     1      85.560  55.723  47.511  1.00  0.00    -0.023 C 
ATOM     20  C   UNL     1      84.490  55.076  48.014  1.00  0.00    -0.080 C 
ATOM     21  C   UNL     1      84.657  54.047  49.102  1.00  0.00     0.039 C 
ATOM     22  C   UNL     1      83.064  55.298  47.592  1.00  0.00     0.039 C 
ENDBRANCH  18  19
ENDBRANCH  13  18
BRANCH  15  23
ATOM     23  O   UNL     1      84.538  58.211  44.184  1.00  0.00    -0.508 OA
ATOM     24  H   UNL     1      83.569  58.270  44.185  1.00  0.00     0.293 HD
ENDBRANCH  15  23
ENDBRANCH   1  12
BRANCH  11  25
ATOM     25  C   UNL     1      86.101  47.724  43.667  1.00  0.00     0.070 C 
BRANCH  25  26
ATOM     26  C   UNL     1      84.647  47.768  43.280  1.00  0.00    -0.023 C 
ATOM     27  C   UNL     1      83.757  46.753  43.260  1.00  0.00    -0.080 C 
ATOM     28  C   UNL     1      82.329  46.998  42.843  1.00  0.00     0.039 C 
ATOM     29  C   UNL     1      84.047  45.327  43.639  1.00  0.00     0.039 C 
ENDBRANCH  25  26
ENDBRANCH  11  25
BRANCH  10  30
ATOM     30  O   UNL     1      88.261  46.987  41.761  1.00  0.00    -0.508 OA
ATOM     31  H   UNL     1      87.570  46.410  42.119  1.00  0.00     0.293 HD
ENDBRANCH  10  30
TORSDOF 7
ENDMDL
