MODEL 1
REMARK VINA RESULT:    -8.641      0.000      0.000
REMARK INTER + INTRA:          -8.641
REMARK INTER:                  -8.641
REMARK INTRA:                   0.000
REMARK UNBOUND:                 0.000
REMARK SMILES CC12CCC3C(CCC4=CC(=O)CCC43C)C1CCC2=O
REMARK SMILES IDX 1 1 2 2 3 3 4 4 5 5 6 6 17 7 18 8 19 9 20 10 21 11 7 12 8 13
REMARK SMILES IDX 9 14 10 15 11 16 12 17 13 18 14 19 15 20 16 21
REMARK H PARENT
ROOT
ATOM      1  C   UNL     1      84.484  55.296  40.571  1.00  0.00     0.020 C 
ATOM      2  C   UNL     1      84.107  54.598  41.884  1.00  0.00     0.029 C 
ATOM      3  C   UNL     1      83.758  55.616  42.984  1.00  0.00     0.015 C 
ATOM      4  C   UNL     1      84.984  56.017  43.796  1.00  0.00     0.006 C 
ATOM      5  C   UNL     1      85.654  54.820  44.500  1.00  0.00     0.002 C 
ATOM      6  C   UNL     1      85.290  53.456  43.852  1.00  0.00    -0.003 C 
ATOM      7  C   UNL     1      85.203  53.581  42.314  1.00  0.00     0.006 C 
ATOM      8  C   UNL     1      84.803  52.279  41.605  1.00  0.00     0.013 C 
ATOM      9  C   UNL     1      83.285  52.225  41.674  1.00  0.00     0.076 C 
ATOM     10  C   UNL     1      82.916  53.683  41.621  1.00  0.00     0.139 C 
ATOM     11  O   UNL     1      81.777  54.080  41.406  1.00  0.00    -0.299 OA
ATOM     12  C   UNL     1      86.302  52.380  44.313  1.00  0.00     0.008 C 
ATOM     13  C   UNL     1      86.871  52.630  45.717  1.00  0.00     0.032 C 
ATOM     14  C   UNL     1      85.875  53.369  46.572  1.00  0.00    -0.060 C 
ATOM     15  C   UNL     1      85.335  52.789  47.657  1.00  0.00     0.047 C 
ATOM     16  C   UNL     1      84.290  53.465  48.460  1.00  0.00     0.155 C 
ATOM     17  O   UNL     1      83.901  52.940  49.501  1.00  0.00    -0.295 OA
ATOM     18  C   UNL     1      83.760  54.796  47.988  1.00  0.00     0.081 C 
ATOM     19  C   UNL     1      83.997  55.013  46.495  1.00  0.00     0.019 C 
ATOM     20  C   UNL     1      85.466  54.759  46.066  1.00  0.00    -0.008 C 
ATOM     21  C   UNL     1      86.392  55.815  46.712  1.00  0.00     0.016 C 
ENDROOT
TORSDOF 0
ENDMDL
MODEL 2
REMARK VINA RESULT:    -8.393      1.421      5.587
REMARK INTER + INTRA:          -8.393
REMARK INTER:                  -8.393
REMARK INTRA:                   0.000
REMARK UNBOUND:                 0.000
REMARK SMILES CC12CCC3C(CCC4=CC(=O)CCC43C)C1CCC2=O
REMARK SMILES IDX 1 1 2 2 3 3 4 4 5 5 6 6 17 7 18 8 19 9 20 10 21 11 7 12 8 13
REMARK SMILES IDX 9 14 10 15 11 16 12 17 13 18 14 19 15 20 16 21
REMARK H PARENT
ROOT
ATOM      1  C   UNL     1      86.743  55.980  47.416  1.00  0.00     0.020 C 
ATOM      2  C   UNL     1      85.551  55.405  46.640  1.00  0.00     0.029 C 
ATOM      3  C   UNL     1      85.709  53.893  46.404  1.00  0.00     0.015 C 
ATOM      4  C   UNL     1      86.433  53.595  45.096  1.00  0.00     0.006 C 
ATOM      5  C   UNL     1      85.698  54.160  43.863  1.00  0.00     0.002 C 
ATOM      6  C   UNL     1      84.714  55.306  44.218  1.00  0.00    -0.003 C 
ATOM      7  C   UNL     1      85.294  56.207  45.332  1.00  0.00     0.006 C 
ATOM      8  C   UNL     1      84.355  57.341  45.768  1.00  0.00     0.013 C 
ATOM      9  C   UNL     1      83.406  56.721  46.782  1.00  0.00     0.076 C 
ATOM     10  C   UNL     1      84.279  55.682  47.434  1.00  0.00     0.139 C 
ATOM     11  O   UNL     1      83.982  55.114  48.478  1.00  0.00    -0.299 OA
ATOM     12  C   UNL     1      84.352  56.091  42.935  1.00  0.00     0.008 C 
ATOM     13  C   UNL     1      84.374  55.235  41.662  1.00  0.00     0.032 C 
ATOM     14  C   UNL     1      84.037  53.801  41.977  1.00  0.00    -0.060 C 
ATOM     15  C   UNL     1      82.916  53.237  41.496  1.00  0.00     0.047 C 
ATOM     16  C   UNL     1      82.522  51.858  41.866  1.00  0.00     0.155 C 
ATOM     17  O   UNL     1      81.545  51.347  41.322  1.00  0.00    -0.295 OA
ATOM     18  C   UNL     1      83.355  51.111  42.879  1.00  0.00     0.081 C 
ATOM     19  C   UNL     1      84.175  52.054  43.756  1.00  0.00     0.019 C 
ATOM     20  C   UNL     1      84.994  53.089  42.941  1.00  0.00    -0.008 C 
ATOM     21  C   UNL     1      86.082  52.364  42.115  1.00  0.00     0.016 C 
ENDROOT
TORSDOF 0
ENDMDL
MODEL 3
REMARK VINA RESULT:    -7.866      2.613      5.494
REMARK INTER + INTRA:          -7.866
REMARK INTER:                  -7.866
REMARK INTRA:                   0.000
REMARK UNBOUND:                 0.000
REMARK SMILES CC12CCC3C(CCC4=CC(=O)CCC43C)C1CCC2=O
REMARK SMILES IDX 1 1 2 2 3 3 4 4 5 5 6 6 17 7 18 8 19 9 20 10 21 11 7 12 8 13
REMARK SMILES IDX 9 14 10 15 11 16 12 17 13 18 14 19 15 20 16 21
REMARK H PARENT
ROOT
ATOM      1  C   UNL     1      83.741  56.615  46.495  1.00  0.00     0.020 C 
ATOM      2  C   UNL     1      84.822  55.586  46.141  1.00  0.00     0.029 C 
ATOM      3  C   UNL     1      85.584  55.985  44.864  1.00  0.00     0.015 C 
ATOM      4  C   UNL     1      84.929  55.415  43.611  1.00  0.00     0.006 C 
ATOM      5  C   UNL     1      84.860  53.874  43.620  1.00  0.00     0.002 C 
ATOM      6  C   UNL     1      84.975  53.272  45.046  1.00  0.00    -0.003 C 
ATOM      7  C   UNL     1      84.230  54.149  46.078  1.00  0.00     0.006 C 
ATOM      8  C   UNL     1      84.336  53.638  47.522  1.00  0.00     0.013 C 
ATOM      9  C   UNL     1      85.661  54.169  48.048  1.00  0.00     0.076 C 
ATOM     10  C   UNL     1      85.788  55.477  47.314  1.00  0.00     0.139 C 
ATOM     11  O   UNL     1      86.597  56.345  47.625  1.00  0.00    -0.299 OA
ATOM     12  C   UNL     1      84.477  51.807  45.029  1.00  0.00     0.008 C 
ATOM     13  C   UNL     1      84.705  51.095  43.689  1.00  0.00     0.032 C 
ATOM     14  C   UNL     1      85.914  51.653  42.986  1.00  0.00    -0.060 C 
ATOM     15  C   UNL     1      87.001  50.891  42.777  1.00  0.00     0.047 C 
ATOM     16  C   UNL     1      88.232  51.446  42.168  1.00  0.00     0.155 C 
ATOM     17  O   UNL     1      89.163  50.688  41.901  1.00  0.00    -0.295 OA
ATOM     18  C   UNL     1      88.290  52.922  41.864  1.00  0.00     0.081 C 
ATOM     19  C   UNL     1      87.285  53.720  42.691  1.00  0.00     0.019 C 
ATOM     20  C   UNL     1      85.846  53.143  42.627  1.00  0.00    -0.008 C 
ATOM     21  C   UNL     1      85.287  53.283  41.192  1.00  0.00     0.016 C 
ENDROOT
TORSDOF 0
ENDMDL
MODEL 4
REMARK VINA RESULT:    -7.812      2.491      4.446
REMARK INTER + INTRA:          -7.812
REMARK INTER:                  -7.812
REMARK INTRA:                   0.000
REMARK UNBOUND:                 0.000
REMARK SMILES CC12CCC3C(CCC4=CC(=O)CCC43C)C1CCC2=O
REMARK SMILES IDX 1 1 2 2 3 3 4 4 5 5 6 6 17 7 18 8 19 9 20 10 21 11 7 12 8 13
REMARK SMILES IDX 9 14 10 15 11 16 12 17 13 18 14 19 15 20 16 21
REMARK H PARENT
ROOT
ATOM      1  C   UNL     1      83.848  56.661  43.348  1.00  0.00     0.020 C 
ATOM      2  C   UNL     1      84.866  55.946  44.245  1.00  0.00     0.029 C 
ATOM      3  C   UNL     1      85.560  54.790  43.502  1.00  0.00     0.015 C 
ATOM      4  C   UNL     1      84.807  53.476  43.669  1.00  0.00     0.006 C 
ATOM      5  C   UNL     1      84.681  53.040  45.143  1.00  0.00     0.002 C 
ATOM      6  C   UNL     1      84.864  54.217  46.139  1.00  0.00    -0.003 C 
ATOM      7  C   UNL     1      84.219  55.509  45.591  1.00  0.00     0.006 C 
ATOM      8  C   UNL     1      84.397  56.730  46.505  1.00  0.00     0.013 C 
ATOM      9  C   UNL     1      85.771  57.292  46.174  1.00  0.00     0.076 C 
ATOM     10  C   UNL     1      85.900  56.965  44.711  1.00  0.00     0.139 C 
ATOM     11  O   UNL     1      86.758  57.457  43.986  1.00  0.00    -0.299 OA
ATOM     12  C   UNL     1      84.313  53.809  47.526  1.00  0.00     0.008 C 
ATOM     13  C   UNL     1      84.428  52.306  47.817  1.00  0.00     0.032 C 
ATOM     14  C   UNL     1      85.611  51.712  47.097  1.00  0.00    -0.060 C 
ATOM     15  C   UNL     1      86.653  51.213  47.783  1.00  0.00     0.047 C 
ATOM     16  C   UNL     1      87.863  50.706  47.094  1.00  0.00     0.155 C 
ATOM     17  O   UNL     1      88.746  50.164  47.755  1.00  0.00    -0.295 OA
ATOM     18  C   UNL     1      87.955  50.842  45.594  1.00  0.00     0.081 C 
ATOM     19  C   UNL     1      87.035  51.936  45.058  1.00  0.00     0.019 C 
ATOM     20  C   UNL     1      85.575  51.809  45.567  1.00  0.00    -0.008 C 
ATOM     21  C   UNL     1      84.932  50.521  45.003  1.00  0.00     0.016 C 
ENDROOT
TORSDOF 0
ENDMDL
MODEL 5
REMARK VINA RESULT:    -7.778      3.640      5.405
REMARK INTER + INTRA:          -7.778
REMARK INTER:                  -7.778
REMARK INTRA:                   0.000
REMARK UNBOUND:                 0.000
REMARK SMILES CC12CCC3C(CCC4=CC(=O)CCC43C)C1CCC2=O
REMARK SMILES IDX 1 1 2 2 3 3 4 4 5 5 6 6 17 7 18 8 19 9 20 10 21 11 7 12 8 13
REMARK SMILES IDX 9 14 10 15 11 16 12 17 13 18 14 19 15 20 16 21
REMARK H PARENT
ROOT
ATOM      1  C   UNL     1      87.952  48.020  41.625  1.00  0.00     0.020 C 
ATOM      2  C   UNL     1      88.167  49.334  42.388  1.00  0.00     0.029 C 
ATOM      3  C   UNL     1      87.549  49.276  43.796  1.00  0.00     0.015 C 
ATOM      4  C   UNL     1      86.102  49.756  43.801  1.00  0.00     0.006 C 
ATOM      5  C   UNL     1      85.953  51.212  43.313  1.00  0.00     0.002 C 
ATOM      6  C   UNL     1      87.159  51.690  42.461  1.00  0.00    -0.003 C 
ATOM      7  C   UNL     1      87.681  50.553  41.553  1.00  0.00     0.006 C 
ATOM      8  C   UNL     1      88.904  50.941  40.711  1.00  0.00     0.013 C 
ATOM      9  C   UNL     1      90.107  50.748  41.621  1.00  0.00     0.076 C 
ATOM     10  C   UNL     1      89.665  49.597  42.485  1.00  0.00     0.139 C 
ATOM     11  O   UNL     1      90.433  48.959  43.197  1.00  0.00    -0.299 OA
ATOM     12  C   UNL     1      86.760  52.958  41.669  1.00  0.00     0.008 C 
ATOM     13  C   UNL     1      85.711  53.824  42.379  1.00  0.00     0.032 C 
ATOM     14  C   UNL     1      85.828  53.685  43.875  1.00  0.00    -0.060 C 
ATOM     15  C   UNL     1      86.188  54.731  44.637  1.00  0.00     0.047 C 
ATOM     16  C   UNL     1      86.394  54.592  46.097  1.00  0.00     0.155 C 
ATOM     17  O   UNL     1      86.621  55.597  46.769  1.00  0.00    -0.295 OA
ATOM     18  C   UNL     1      86.286  53.222  46.719  1.00  0.00     0.081 C 
ATOM     19  C   UNL     1      86.490  52.108  45.695  1.00  0.00     0.019 C 
ATOM     20  C   UNL     1      85.606  52.272  44.430  1.00  0.00    -0.008 C 
ATOM     21  C   UNL     1      84.115  52.115  44.807  1.00  0.00     0.016 C 
ENDROOT
TORSDOF 0
ENDMDL
MODEL 6
REMARK VINA RESULT:    -7.694      3.590      5.958
REMARK INTER + INTRA:          -7.694
REMARK INTER:                  -7.694
REMARK INTRA:                   0.000
REMARK UNBOUND:                 0.000
REMARK SMILES CC12CCC3C(CCC4=CC(=O)CCC43C)C1CCC2=O
REMARK SMILES IDX 1 1 2 2 3 3 4 4 5 5 6 6 17 7 18 8 19 9 20 10 21 11 7 12 8 13
REMARK SMILES IDX 9 14 10 15 11 16 12 17 13 18 14 19 15 20 16 21
REMARK H PARENT
ROOT
ATOM      1  C   UNL     1      89.759  49.220  43.932  1.00  0.00     0.020 C 
ATOM      2  C   UNL     1      88.536  49.647  43.110  1.00  0.00     0.029 C 
ATOM      3  C   UNL     1      88.301  51.166  43.195  1.00  0.00     0.015 C 
ATOM      4  C   UNL     1      87.385  51.534  44.357  1.00  0.00     0.006 C 
ATOM      5  C   UNL     1      85.993  50.877  44.253  1.00  0.00     0.002 C 
ATOM      6  C   UNL     1      85.981  49.628  43.332  1.00  0.00    -0.003 C 
ATOM      7  C   UNL     1      87.281  48.809  43.494  1.00  0.00     0.006 C 
ATOM      8  C   UNL     1      87.361  47.578  42.580  1.00  0.00     0.013 C 
ATOM      9  C   UNL     1      87.867  48.094  41.242  1.00  0.00     0.076 C 
ATOM     10  C   UNL     1      88.758  49.232  41.661  1.00  0.00     0.139 C 
ATOM     11  O   UNL     1      89.560  49.771  40.905  1.00  0.00    -0.299 OA
ATOM     12  C   UNL     1      84.707  48.795  43.610  1.00  0.00     0.008 C 
ATOM     13  C   UNL     1      83.506  49.638  44.064  1.00  0.00     0.032 C 
ATOM     14  C   UNL     1      83.578  51.025  43.483  1.00  0.00    -0.060 C 
ATOM     15  C   UNL     1      82.654  51.452  42.605  1.00  0.00     0.047 C 
ATOM     16  C   UNL     1      82.755  52.780  41.956  1.00  0.00     0.155 C 
ATOM     17  O   UNL     1      81.834  53.169  41.241  1.00  0.00    -0.295 OA
ATOM     18  C   UNL     1      83.976  53.626  42.221  1.00  0.00     0.081 C 
ATOM     19  C   UNL     1      85.161  52.792  42.701  1.00  0.00     0.019 C 
ATOM     20  C   UNL     1      84.807  51.852  43.883  1.00  0.00    -0.008 C 
ATOM     21  C   UNL     1      84.455  52.690  45.134  1.00  0.00     0.016 C 
ENDROOT
TORSDOF 0
ENDMDL
MODEL 7
REMARK VINA RESULT:    -7.603      2.964      5.413
REMARK INTER + INTRA:          -7.603
REMARK INTER:                  -7.603
REMARK INTRA:                   0.000
REMARK UNBOUND:                 0.000
REMARK SMILES CC12CCC3C(CCC4=CC(=O)CCC43C)C1CCC2=O
REMARK SMILES IDX 1 1 2 2 3 3 4 4 5 5 6 6 17 7 18 8 19 9 20 10 21 11 7 12 8 13
REMARK SMILES IDX 9 14 10 15 11 16 12 17 13 18 14 19 15 20 16 21
REMARK H PARENT
ROOT
ATOM      1  C   UNL     1      83.384  55.768  46.288  1.00  0.00     0.020 C 
ATOM      2  C   UNL     1      84.698  55.036  45.988  1.00  0.00     0.029 C 
ATOM      3  C   UNL     1      84.683  54.402  44.586  1.00  0.00     0.015 C 
ATOM      4  C   UNL     1      84.142  52.978  44.612  1.00  0.00     0.006 C 
ATOM      5  C   UNL     1      84.972  52.039  45.512  1.00  0.00     0.002 C 
ATOM      6  C   UNL     1      85.819  52.803  46.565  1.00  0.00    -0.003 C 
ATOM      7  C   UNL     1      85.047  54.022  47.116  1.00  0.00     0.006 C 
ATOM      8  C   UNL     1      85.840  54.855  48.134  1.00  0.00     0.013 C 
ATOM      9  C   UNL     1      86.707  55.793  47.308  1.00  0.00     0.076 C 
ATOM     10  C   UNL     1      85.844  56.035  46.099  1.00  0.00     0.139 C 
ATOM     11  O   UNL     1      86.058  56.931  45.290  1.00  0.00    -0.299 OA
ATOM     12  C   UNL     1      86.269  51.823  47.674  1.00  0.00     0.008 C 
ATOM     13  C   UNL     1      86.461  50.381  47.183  1.00  0.00     0.032 C 
ATOM     14  C   UNL     1      86.865  50.362  45.732  1.00  0.00    -0.060 C 
ATOM     15  C   UNL     1      88.074  49.906  45.362  1.00  0.00     0.047 C 
ATOM     16  C   UNL     1      88.525  49.960  43.952  1.00  0.00     0.155 C 
ATOM     17  O   UNL     1      89.594  49.438  43.644  1.00  0.00    -0.295 OA
ATOM     18  C   UNL     1      87.637  50.628  42.931  1.00  0.00     0.081 C 
ATOM     19  C   UNL     1      86.651  51.600  43.574  1.00  0.00     0.019 C 
ATOM     20  C   UNL     1      85.858  50.975  44.752  1.00  0.00    -0.008 C 
ATOM     21  C   UNL     1      84.932  49.855  44.226  1.00  0.00     0.016 C 
ENDROOT
TORSDOF 0
ENDMDL
MODEL 8
REMARK VINA RESULT:    -7.308      3.229      5.063
REMARK INTER + INTRA:          -7.308
REMARK INTER:                  -7.308
REMARK INTRA:                   0.000
REMARK UNBOUND:                 0.000
REMARK SMILES CC12CCC3C(CCC4=CC(=O)CCC43C)C1CCC2=O
REMARK SMILES IDX 1 1 2 2 3 3 4 4 5 5 6 6 17 7 18 8 19 9 20 10 21 11 7 12 8 13
REMARK SMILES IDX 9 14 10 15 11 16 12 17 13 18 14 19 15 20 16 21
REMARK H PARENT
ROOT
ATOM      1  C   UNL     1      88.351  50.127  41.837  1.00  0.00     0.020 C 
ATOM      2  C   UNL     1      88.161  51.648  41.906  1.00  0.00     0.029 C 
ATOM      3  C   UNL     1      88.197  52.155  43.359  1.00  0.00     0.015 C 
ATOM      4  C   UNL     1      86.809  52.166  43.991  1.00  0.00     0.006 C 
ATOM      5  C   UNL     1      85.813  53.067  43.233  1.00  0.00     0.002 C 
ATOM      6  C   UNL     1      86.243  53.344  41.767  1.00  0.00    -0.003 C 
ATOM      7  C   UNL     1      86.885  52.090  41.133  1.00  0.00     0.006 C 
ATOM      8  C   UNL     1      87.376  52.302  39.693  1.00  0.00     0.013 C 
ATOM      9  C   UNL     1      88.756  52.929  39.819  1.00  0.00     0.076 C 
ATOM     10  C   UNL     1      89.267  52.310  41.093  1.00  0.00     0.139 C 
ATOM     11  O   UNL     1      90.442  52.356  41.437  1.00  0.00    -0.299 OA
ATOM     12  C   UNL     1      85.029  53.871  40.965  1.00  0.00     0.008 C 
ATOM     13  C   UNL     1      84.026  54.663  41.814  1.00  0.00     0.032 C 
ATOM     14  C   UNL     1      84.721  55.343  42.965  1.00  0.00    -0.060 C 
ATOM     15  C   UNL     1      84.775  56.684  43.040  1.00  0.00     0.047 C 
ATOM     16  C   UNL     1      85.529  57.371  44.115  1.00  0.00     0.155 C 
ATOM     17  O   UNL     1      85.465  58.595  44.203  1.00  0.00    -0.295 OA
ATOM     18  C   UNL     1      86.325  56.538  45.089  1.00  0.00     0.081 C 
ATOM     19  C   UNL     1      86.660  55.159  44.527  1.00  0.00     0.019 C 
ATOM     20  C   UNL     1      85.423  54.412  43.962  1.00  0.00    -0.008 C 
ATOM     21  C   UNL     1      84.441  54.080  45.108  1.00  0.00     0.016 C 
ENDROOT
TORSDOF 0
ENDMDL
MODEL 9
REMARK VINA RESULT:    -7.179      2.706      3.782
REMARK INTER + INTRA:          -7.179
REMARK INTER:                  -7.179
REMARK INTRA:                   0.000
REMARK UNBOUND:                 0.000
REMARK SMILES CC12CCC3C(CCC4=CC(=O)CCC43C)C1CCC2=O
REMARK SMILES IDX 1 1 2 2 3 3 4 4 5 5 6 6 17 7 18 8 19 9 20 10 21 11 7 12 8 13
REMARK SMILES IDX 9 14 10 15 11 16 12 17 13 18 14 19 15 20 16 21
REMARK H PARENT
ROOT
ATOM      1  C   UNL     1      88.429  50.762  43.533  1.00  0.00     0.020 C 
ATOM      2  C   UNL     1      87.094  51.246  44.114  1.00  0.00     0.029 C 
ATOM      3  C   UNL     1      86.803  52.705  43.720  1.00  0.00     0.015 C 
ATOM      4  C   UNL     1      87.362  53.690  44.740  1.00  0.00     0.006 C 
ATOM      5  C   UNL     1      86.775  53.489  46.152  1.00  0.00     0.002 C 
ATOM      6  C   UNL     1      86.173  52.073  46.360  1.00  0.00    -0.003 C 
ATOM      7  C   UNL     1      87.028  51.000  45.649  1.00  0.00     0.006 C 
ATOM      8  C   UNL     1      86.470  49.575  45.775  1.00  0.00     0.013 C 
ATOM      9  C   UNL     1      85.423  49.447  44.680  1.00  0.00     0.076 C 
ATOM     10  C   UNL     1      85.986  50.334  43.602  1.00  0.00     0.139 C 
ATOM     11  O   UNL     1      85.577  50.328  42.446  1.00  0.00    -0.299 OA
ATOM     12  C   UNL     1      86.004  51.803  47.874  1.00  0.00     0.008 C 
ATOM     13  C   UNL     1      85.732  53.068  48.699  1.00  0.00     0.032 C 
ATOM     14  C   UNL     1      85.011  54.100  47.872  1.00  0.00    -0.060 C 
ATOM     15  C   UNL     1      83.758  54.475  48.182  1.00  0.00     0.047 C 
ATOM     16  C   UNL     1      82.999  55.421  47.331  1.00  0.00     0.155 C 
ATOM     17  O   UNL     1      81.897  55.816  47.708  1.00  0.00    -0.295 OA
ATOM     18  C   UNL     1      83.621  55.897  46.041  1.00  0.00     0.081 C 
ATOM     19  C   UNL     1      84.709  54.949  45.543  1.00  0.00     0.019 C 
ATOM     20  C   UNL     1      85.759  54.599  46.630  1.00  0.00    -0.008 C 
ATOM     21  C   UNL     1      86.563  55.865  47.011  1.00  0.00     0.016 C 
ENDROOT
TORSDOF 0
ENDMDL
