MODEL 1
REMARK VINA RESULT:    -8.761      0.000      0.000
REMARK INTER + INTRA:          -9.580
REMARK INTER:                  -9.271
REMARK INTRA:                  -0.309
REMARK UNBOUND:                -0.307
REMARK SMILES O=c1cc(-c2ccccc2)oc2c1ccc1occc12
REMARK SMILES IDX 1 1 2 2 3 3 4 4 11 5 12 6 13 7 14 8 15 9 16 10 20 11 19 12
REMARK SMILES IDX 18 13 17 14 5 15 6 16 10 17 7 18 9 19 8 20
REMARK H PARENT
ROOT
ATOM      1  O   UNL     1      86.651  49.640  47.676  1.00  0.00    -0.289 OA
ATOM      2  C   UNL     1      86.836  50.538  46.865  1.00  0.00     0.193 C 
ATOM      3  C   UNL     1      87.491  50.266  45.575  1.00  0.00     0.100 C 
ATOM      4  C   UNL     1      87.686  51.262  44.696  1.00  0.00     0.138 C 
ATOM      5  O   UNL     1      87.292  52.573  44.942  1.00  0.00    -0.455 OA
ATOM      6  C   UNL     1      86.676  52.879  46.131  1.00  0.00     0.149 A 
ATOM      7  C   UNL     1      86.422  51.924  47.120  1.00  0.00     0.066 A 
ATOM      8  C   UNL     1      85.791  52.261  48.325  1.00  0.00     0.020 A 
ATOM      9  C   UNL     1      85.393  53.578  48.579  1.00  0.00     0.049 A 
ATOM     10  C   UNL     1      85.658  54.510  47.579  1.00  0.00     0.137 A 
ATOM     11  C   UNL     1      86.281  54.210  46.371  1.00  0.00     0.064 A 
ATOM     12  C   UNL     1      86.348  55.439  45.660  1.00  0.00     0.054 A 
ATOM     13  C   UNL     1      85.771  56.391  46.469  1.00  0.00     0.196 A 
ATOM     14  O   UNL     1      85.350  55.835  47.635  1.00  0.00    -0.464 OA
ENDROOT
BRANCH   4  15
ATOM     15  C   UNL     1      88.342  51.069  43.369  1.00  0.00     0.017 A 
ATOM     16  C   UNL     1      88.963  49.843  43.062  1.00  0.00     0.012 A 
ATOM     17  C   UNL     1      88.374  52.067  42.379  1.00  0.00     0.012 A 
ATOM     18  C   UNL     1      89.588  49.625  41.829  1.00  0.00     0.001 A 
ATOM     19  C   UNL     1      88.999  51.851  41.143  1.00  0.00     0.001 A 
ATOM     20  C   UNL     1      89.605  50.631  40.870  1.00  0.00     0.000 A 
ENDBRANCH   4  15
TORSDOF 1
ENDMDL
MODEL 2
REMARK VINA RESULT:    -8.546      2.101      6.881
REMARK INTER + INTRA:          -9.353
REMARK INTER:                  -9.043
REMARK INTRA:                  -0.310
REMARK UNBOUND:                -0.307
REMARK SMILES O=c1cc(-c2ccccc2)oc2c1ccc1occc12
REMARK SMILES IDX 1 1 2 2 3 3 4 4 11 5 12 6 13 7 14 8 15 9 16 10 20 11 19 12
REMARK SMILES IDX 18 13 17 14 5 15 6 16 10 17 7 18 9 19 8 20
REMARK H PARENT
ROOT
ATOM      1  O   UNL     1      86.673  53.732  41.619  1.00  0.00    -0.289 OA
ATOM      2  C   UNL     1      87.084  52.922  42.440  1.00  0.00     0.193 C 
ATOM      3  C   UNL     1      86.632  52.971  43.840  1.00  0.00     0.100 C 
ATOM      4  C   UNL     1      87.092  52.076  44.728  1.00  0.00     0.138 C 
ATOM      5  O   UNL     1      87.997  51.075  44.390  1.00  0.00    -0.455 OA
ATOM      6  C   UNL     1      88.450  50.985  43.096  1.00  0.00     0.149 A 
ATOM      7  C   UNL     1      88.039  51.863  42.088  1.00  0.00     0.066 A 
ATOM      8  C   UNL     1      88.515  51.751  40.775  1.00  0.00     0.020 A 
ATOM      9  C   UNL     1      89.425  50.747  40.428  1.00  0.00     0.049 A 
ATOM     10  C   UNL     1      89.818  49.886  41.450  1.00  0.00     0.137 A 
ATOM     11  C   UNL     1      89.365  49.969  42.763  1.00  0.00     0.064 A 
ATOM     12  C   UNL     1      90.013  48.910  43.457  1.00  0.00     0.054 A 
ATOM     13  C   UNL     1      90.805  48.264  42.536  1.00  0.00     0.196 A 
ATOM     14  O   UNL     1      90.692  48.850  41.315  1.00  0.00    -0.464 OA
ENDROOT
BRANCH   4  15
ATOM     15  C   UNL     1      86.684  52.058  46.164  1.00  0.00     0.017 A 
ATOM     16  C   UNL     1      87.078  50.992  46.994  1.00  0.00     0.012 A 
ATOM     17  C   UNL     1      85.908  53.073  46.752  1.00  0.00     0.012 A 
ATOM     18  C   UNL     1      86.715  50.940  48.345  1.00  0.00     0.001 A 
ATOM     19  C   UNL     1      85.544  53.023  48.104  1.00  0.00     0.001 A 
ATOM     20  C   UNL     1      85.947  51.957  48.899  1.00  0.00     0.000 A 
ENDBRANCH   4  15
TORSDOF 1
ENDMDL
MODEL 3
REMARK VINA RESULT:    -8.467      1.575      5.790
REMARK INTER + INTRA:          -9.269
REMARK INTER:                  -8.961
REMARK INTRA:                  -0.307
REMARK UNBOUND:                -0.307
REMARK SMILES O=c1cc(-c2ccccc2)oc2c1ccc1occc12
REMARK SMILES IDX 1 1 2 2 3 3 4 4 11 5 12 6 13 7 14 8 15 9 16 10 20 11 19 12
REMARK SMILES IDX 18 13 17 14 5 15 6 16 10 17 7 18 9 19 8 20
REMARK H PARENT
ROOT
ATOM      1  O   UNL     1      85.436  52.358  49.094  1.00  0.00    -0.289 OA
ATOM      2  C   UNL     1      85.779  52.746  47.985  1.00  0.00     0.193 C 
ATOM      3  C   UNL     1      85.539  54.137  47.565  1.00  0.00     0.100 C 
ATOM      4  C   UNL     1      85.920  54.548  46.346  1.00  0.00     0.138 C 
ATOM      5  O   UNL     1      86.549  53.710  45.431  1.00  0.00    -0.455 OA
ATOM      6  C   UNL     1      86.797  52.403  45.773  1.00  0.00     0.149 A 
ATOM      7  C   UNL     1      86.443  51.867  47.015  1.00  0.00     0.066 A 
ATOM      8  C   UNL     1      86.708  50.530  47.342  1.00  0.00     0.020 A 
ATOM      9  C   UNL     1      87.340  49.681  46.426  1.00  0.00     0.049 A 
ATOM     10  C   UNL     1      87.680  50.240  45.196  1.00  0.00     0.137 A 
ATOM     11  C   UNL     1      87.434  51.563  44.840  1.00  0.00     0.064 A 
ATOM     12  C   UNL     1      87.940  51.702  43.518  1.00  0.00     0.054 A 
ATOM     13  C   UNL     1      88.452  50.476  43.164  1.00  0.00     0.196 A 
ATOM     14  O   UNL     1      88.299  49.583  44.177  1.00  0.00    -0.464 OA
ENDROOT
BRANCH   4  15
ATOM     15  C   UNL     1      85.713  55.939  45.845  1.00  0.00     0.017 A 
ATOM     16  C   UNL     1      84.851  56.814  46.534  1.00  0.00     0.012 A 
ATOM     17  C   UNL     1      86.346  56.441  44.695  1.00  0.00     0.012 A 
ATOM     18  C   UNL     1      84.631  58.124  46.096  1.00  0.00     0.001 A 
ATOM     19  C   UNL     1      86.128  57.753  44.254  1.00  0.00     0.001 A 
ATOM     20  C   UNL     1      85.271  58.593  44.955  1.00  0.00     0.000 A 
ENDBRANCH   4  15
TORSDOF 1
ENDMDL
MODEL 4
REMARK VINA RESULT:    -8.437      6.052      7.521
REMARK INTER + INTRA:          -9.237
REMARK INTER:                  -8.942
REMARK INTRA:                  -0.296
REMARK UNBOUND:                -0.307
REMARK SMILES O=c1cc(-c2ccccc2)oc2c1ccc1occc12
REMARK SMILES IDX 1 1 2 2 3 3 4 4 11 5 12 6 13 7 14 8 15 9 16 10 20 11 19 12
REMARK SMILES IDX 18 13 17 14 5 15 6 16 10 17 7 18 9 19 8 20
REMARK H PARENT
ROOT
ATOM      1  O   UNL     1      85.043  50.487  43.318  1.00  0.00    -0.289 OA
ATOM      2  C   UNL     1      84.683  49.318  43.373  1.00  0.00     0.193 C 
ATOM      3  C   UNL     1      85.663  48.222  43.295  1.00  0.00     0.100 C 
ATOM      4  C   UNL     1      85.252  46.945  43.356  1.00  0.00     0.138 C 
ATOM      5  O   UNL     1      83.915  46.590  43.495  1.00  0.00    -0.455 OA
ATOM      6  C   UNL     1      82.960  47.575  43.573  1.00  0.00     0.149 A 
ATOM      7  C   UNL     1      83.272  48.937  43.519  1.00  0.00     0.066 A 
ATOM      8  C   UNL     1      82.281  49.923  43.602  1.00  0.00     0.020 A 
ATOM      9  C   UNL     1      80.933  49.573  43.741  1.00  0.00     0.049 A 
ATOM     10  C   UNL     1      80.649  48.210  43.791  1.00  0.00     0.137 A 
ATOM     11  C   UNL     1      81.609  47.205  43.713  1.00  0.00     0.064 A 
ATOM     12  C   UNL     1      80.888  45.982  43.804  1.00  0.00     0.054 A 
ATOM     13  C   UNL     1      79.560  46.319  43.930  1.00  0.00     0.196 A 
ATOM     14  O   UNL     1      79.407  47.669  43.923  1.00  0.00    -0.464 OA
ENDROOT
BRANCH   4  15
ATOM     15  C   UNL     1      86.181  45.779  43.284  1.00  0.00     0.017 A 
ATOM     16  C   UNL     1      87.338  45.849  42.484  1.00  0.00     0.012 A 
ATOM     17  C   UNL     1      85.963  44.581  43.987  1.00  0.00     0.012 A 
ATOM     18  C   UNL     1      88.232  44.777  42.391  1.00  0.00     0.001 A 
ATOM     19  C   UNL     1      86.856  43.506  43.896  1.00  0.00     0.001 A 
ATOM     20  C   UNL     1      87.990  43.605  43.098  1.00  0.00     0.000 A 
ENDBRANCH   4  15
TORSDOF 1
ENDMDL
MODEL 5
REMARK VINA RESULT:    -8.337      2.574      4.227
REMARK INTER + INTRA:          -9.131
REMARK INTER:                  -8.850
REMARK INTRA:                  -0.281
REMARK UNBOUND:                -0.307
REMARK SMILES O=c1cc(-c2ccccc2)oc2c1ccc1occc12
REMARK SMILES IDX 1 1 2 2 3 3 4 4 11 5 12 6 13 7 14 8 15 9 16 10 20 11 19 12
REMARK SMILES IDX 18 13 17 14 5 15 6 16 10 17 7 18 9 19 8 20
REMARK H PARENT
ROOT
ATOM      1  O   UNL     1      84.718  53.727  39.816  1.00  0.00    -0.289 OA
ATOM      2  C   UNL     1      85.377  53.608  40.841  1.00  0.00     0.193 C 
ATOM      3  C   UNL     1      86.377  52.536  40.975  1.00  0.00     0.100 C 
ATOM      4  C   UNL     1      87.092  52.418  42.105  1.00  0.00     0.138 C 
ATOM      5  O   UNL     1      86.937  53.278  43.188  1.00  0.00    -0.455 OA
ATOM      6  C   UNL     1      86.016  54.295  43.114  1.00  0.00     0.149 A 
ATOM      7  C   UNL     1      85.217  54.512  41.987  1.00  0.00     0.066 A 
ATOM      8  C   UNL     1      84.286  55.558  41.935  1.00  0.00     0.020 A 
ATOM      9  C   UNL     1      84.124  56.426  43.021  1.00  0.00     0.049 A 
ATOM     10  C   UNL     1      84.931  56.187  44.130  1.00  0.00     0.137 A 
ATOM     11  C   UNL     1      85.866  55.160  44.215  1.00  0.00     0.064 A 
ATOM     12  C   UNL     1      86.457  55.286  45.503  1.00  0.00     0.054 A 
ATOM     13  C   UNL     1      85.852  56.364  46.106  1.00  0.00     0.196 A 
ATOM     14  O   UNL     1      84.925  56.917  45.280  1.00  0.00    -0.464 OA
ENDROOT
BRANCH   4  15
ATOM     15  C   UNL     1      88.123  51.361  42.319  1.00  0.00     0.017 A 
ATOM     16  C   UNL     1      88.059  50.536  43.459  1.00  0.00     0.012 A 
ATOM     17  C   UNL     1      89.183  51.132  41.424  1.00  0.00     0.012 A 
ATOM     18  C   UNL     1      89.007  49.534  43.694  1.00  0.00     0.001 A 
ATOM     19  C   UNL     1      90.133  50.129  41.657  1.00  0.00     0.001 A 
ATOM     20  C   UNL     1      90.045  49.331  42.792  1.00  0.00     0.000 A 
ENDBRANCH   4  15
TORSDOF 1
ENDMDL
MODEL 6
REMARK VINA RESULT:    -8.323      5.862      8.339
REMARK INTER + INTRA:          -9.116
REMARK INTER:                  -8.809
REMARK INTRA:                  -0.307
REMARK UNBOUND:                -0.307
REMARK SMILES O=c1cc(-c2ccccc2)oc2c1ccc1occc12
REMARK SMILES IDX 1 1 2 2 3 3 4 4 11 5 12 6 13 7 14 8 15 9 16 10 20 11 19 12
REMARK SMILES IDX 18 13 17 14 5 15 6 16 10 17 7 18 9 19 8 20
REMARK H PARENT
ROOT
ATOM      1  O   UNL     1      86.380  43.244  43.868  1.00  0.00    -0.289 OA
ATOM      2  C   UNL     1      86.137  44.409  43.581  1.00  0.00     0.193 C 
ATOM      3  C   UNL     1      84.789  44.969  43.778  1.00  0.00     0.100 C 
ATOM      4  C   UNL     1      84.538  46.248  43.458  1.00  0.00     0.138 C 
ATOM      5  O   UNL     1      85.507  47.099  42.938  1.00  0.00    -0.455 OA
ATOM      6  C   UNL     1      86.781  46.627  42.735  1.00  0.00     0.149 A 
ATOM      7  C   UNL     1      87.156  45.312  43.031  1.00  0.00     0.066 A 
ATOM      8  C   UNL     1      88.462  44.853  42.816  1.00  0.00     0.020 A 
ATOM      9  C   UNL     1      89.442  45.704  42.292  1.00  0.00     0.049 A 
ATOM     10  C   UNL     1      89.042  47.007  42.005  1.00  0.00     0.137 A 
ATOM     11  C   UNL     1      87.755  47.496  42.207  1.00  0.00     0.064 A 
ATOM     12  C   UNL     1      87.792  48.854  41.786  1.00  0.00     0.054 A 
ATOM     13  C   UNL     1      89.078  49.097  41.362  1.00  0.00     0.196 A 
ATOM     14  O   UNL     1      89.843  47.982  41.492  1.00  0.00    -0.464 OA
ENDROOT
BRANCH   4  15
ATOM     15  C   UNL     1      83.201  46.890  43.627  1.00  0.00     0.017 A 
ATOM     16  C   UNL     1      83.081  48.292  43.570  1.00  0.00     0.012 A 
ATOM     17  C   UNL     1      82.021  46.157  43.845  1.00  0.00     0.012 A 
ATOM     18  C   UNL     1      81.845  48.930  43.724  1.00  0.00     0.001 A 
ATOM     19  C   UNL     1      80.783  46.793  43.999  1.00  0.00     0.001 A 
ATOM     20  C   UNL     1      80.695  48.179  43.938  1.00  0.00     0.000 A 
ENDBRANCH   4  15
TORSDOF 1
ENDMDL
MODEL 7
REMARK VINA RESULT:    -8.285      1.751      6.197
REMARK INTER + INTRA:          -9.076
REMARK INTER:                  -8.769
REMARK INTRA:                  -0.307
REMARK UNBOUND:                -0.307
REMARK SMILES O=c1cc(-c2ccccc2)oc2c1ccc1occc12
REMARK SMILES IDX 1 1 2 2 3 3 4 4 11 5 12 6 13 7 14 8 15 9 16 10 20 11 19 12
REMARK SMILES IDX 18 13 17 14 5 15 6 16 10 17 7 18 9 19 8 20
REMARK H PARENT
ROOT
ATOM      1  O   UNL     1      85.908  48.422  45.011  1.00  0.00    -0.289 OA
ATOM      2  C   UNL     1      86.347  49.538  44.764  1.00  0.00     0.193 C 
ATOM      3  C   UNL     1      86.055  50.677  45.651  1.00  0.00     0.100 C 
ATOM      4  C   UNL     1      86.544  51.894  45.367  1.00  0.00     0.138 C 
ATOM      5  O   UNL     1      87.334  52.148  44.251  1.00  0.00    -0.455 OA
ATOM      6  C   UNL     1      87.635  51.119  43.391  1.00  0.00     0.149 A 
ATOM      7  C   UNL     1      87.181  49.811  43.587  1.00  0.00     0.066 A 
ATOM      8  C   UNL     1      87.503  48.779  42.697  1.00  0.00     0.020 A 
ATOM      9  C   UNL     1      88.297  49.027  41.572  1.00  0.00     0.049 A 
ATOM     10  C   UNL     1      88.736  50.337  41.399  1.00  0.00     0.137 A 
ATOM     11  C   UNL     1      88.436  51.386  42.264  1.00  0.00     0.064 A 
ATOM     12  C   UNL     1      89.079  52.529  41.715  1.00  0.00     0.054 A 
ATOM     13  C   UNL     1      89.717  52.108  40.571  1.00  0.00     0.196 A 
ATOM     14  O   UNL     1      89.514  50.779  40.373  1.00  0.00    -0.464 OA
ENDROOT
BRANCH   4  15
ATOM     15  C   UNL     1      86.294  53.098  46.214  1.00  0.00     0.017 A 
ATOM     16  C   UNL     1      86.561  54.384  45.705  1.00  0.00     0.012 A 
ATOM     17  C   UNL     1      85.793  53.022  47.525  1.00  0.00     0.012 A 
ATOM     18  C   UNL     1      86.341  55.536  46.468  1.00  0.00     0.001 A 
ATOM     19  C   UNL     1      85.570  54.173  48.291  1.00  0.00     0.001 A 
ATOM     20  C   UNL     1      85.844  55.429  47.763  1.00  0.00     0.000 A 
ENDBRANCH   4  15
TORSDOF 1
ENDMDL
MODEL 8
REMARK VINA RESULT:    -8.156      1.845      3.644
REMARK INTER + INTRA:          -8.940
REMARK INTER:                  -8.635
REMARK INTRA:                  -0.305
REMARK UNBOUND:                -0.307
REMARK SMILES O=c1cc(-c2ccccc2)oc2c1ccc1occc12
REMARK SMILES IDX 1 1 2 2 3 3 4 4 11 5 12 6 13 7 14 8 15 9 16 10 20 11 19 12
REMARK SMILES IDX 18 13 17 14 5 15 6 16 10 17 7 18 9 19 8 20
REMARK H PARENT
ROOT
ATOM      1  O   UNL     1      85.187  56.223  42.492  1.00  0.00    -0.289 OA
ATOM      2  C   UNL     1      85.543  55.335  43.255  1.00  0.00     0.193 C 
ATOM      3  C   UNL     1      86.415  54.244  42.788  1.00  0.00     0.100 C 
ATOM      4  C   UNL     1      86.797  53.276  43.636  1.00  0.00     0.138 C 
ATOM      5  O   UNL     1      86.405  53.246  44.970  1.00  0.00    -0.455 OA
ATOM      6  C   UNL     1      85.592  54.241  45.457  1.00  0.00     0.149 A 
ATOM      7  C   UNL     1      85.132  55.298  44.664  1.00  0.00     0.066 A 
ATOM      8  C   UNL     1      84.304  56.301  45.183  1.00  0.00     0.020 A 
ATOM      9  C   UNL     1      83.906  56.277  46.524  1.00  0.00     0.049 A 
ATOM     10  C   UNL     1      84.376  55.214  47.291  1.00  0.00     0.137 A 
ATOM     11  C   UNL     1      85.200  54.202  46.809  1.00  0.00     0.064 A 
ATOM     12  C   UNL     1      85.433  53.339  47.915  1.00  0.00     0.054 A 
ATOM     13  C   UNL     1      84.747  53.875  48.980  1.00  0.00     0.196 A 
ATOM     14  O   UNL     1      84.103  55.013  48.610  1.00  0.00    -0.464 OA
ENDROOT
BRANCH   4  15
ATOM     15  C   UNL     1      87.678  52.138  43.242  1.00  0.00     0.017 A 
ATOM     16  C   UNL     1      88.455  52.223  42.070  1.00  0.00     0.012 A 
ATOM     17  C   UNL     1      87.781  50.954  43.992  1.00  0.00     0.012 A 
ATOM     18  C   UNL     1      89.292  51.177  41.667  1.00  0.00     0.001 A 
ATOM     19  C   UNL     1      88.619  49.905  43.591  1.00  0.00     0.001 A 
ATOM     20  C   UNL     1      89.374  50.017  42.430  1.00  0.00     0.000 A 
ENDBRANCH   4  15
TORSDOF 1
ENDMDL
MODEL 9
REMARK VINA RESULT:    -8.014      2.085      6.843
REMARK INTER + INTRA:          -8.790
REMARK INTER:                  -8.483
REMARK INTRA:                  -0.307
REMARK UNBOUND:                -0.307
REMARK SMILES O=c1cc(-c2ccccc2)oc2c1ccc1occc12
REMARK SMILES IDX 1 1 2 2 3 3 4 4 11 5 12 6 13 7 14 8 15 9 16 10 20 11 19 12
REMARK SMILES IDX 18 13 17 14 5 15 6 16 10 17 7 18 9 19 8 20
REMARK H PARENT
ROOT
ATOM      1  O   UNL     1      85.974  54.414  41.716  1.00  0.00    -0.289 OA
ATOM      2  C   UNL     1      86.351  53.585  42.534  1.00  0.00     0.193 C 
ATOM      3  C   UNL     1      85.847  53.606  43.917  1.00  0.00     0.100 C 
ATOM      4  C   UNL     1      86.270  52.690  44.803  1.00  0.00     0.138 C 
ATOM      5  O   UNL     1      87.183  51.693  44.477  1.00  0.00    -0.455 OA
ATOM      6  C   UNL     1      87.684  51.628  43.199  1.00  0.00     0.149 A 
ATOM      7  C   UNL     1      87.315  52.530  42.196  1.00  0.00     0.066 A 
ATOM      8  C   UNL     1      87.840  52.444  40.900  1.00  0.00     0.020 A 
ATOM      9  C   UNL     1      88.759  51.443  40.566  1.00  0.00     0.049 A 
ATOM     10  C   UNL     1      89.111  50.559  41.583  1.00  0.00     0.137 A 
ATOM     11  C   UNL     1      88.609  50.615  42.880  1.00  0.00     0.064 A 
ATOM     12  C   UNL     1      89.226  49.539  43.575  1.00  0.00     0.054 A 
ATOM     13  C   UNL     1      90.049  48.910  42.670  1.00  0.00     0.196 A 
ATOM     14  O   UNL     1      89.985  49.523  41.459  1.00  0.00    -0.464 OA
ENDROOT
BRANCH   4  15
ATOM     15  C   UNL     1      85.807  52.643  46.221  1.00  0.00     0.017 A 
ATOM     16  C   UNL     1      84.676  53.383  46.617  1.00  0.00     0.012 A 
ATOM     17  C   UNL     1      86.452  51.882  47.212  1.00  0.00     0.012 A 
ATOM     18  C   UNL     1      84.213  53.365  47.937  1.00  0.00     0.001 A 
ATOM     19  C   UNL     1      85.989  51.862  48.534  1.00  0.00     0.001 A 
ATOM     20  C   UNL     1      84.871  52.603  48.896  1.00  0.00     0.000 A 
ENDBRANCH   4  15
TORSDOF 1
ENDMDL
