MODEL 1
REMARK VINA RESULT:    -7.141      0.000      0.000
REMARK INTER + INTRA:          -8.337
REMARK INTER:                  -7.931
REMARK INTRA:                  -0.406
REMARK UNBOUND:                -0.361
REMARK SMILES CC(C)(C#N)n1cnc(-c2ccc(Cl)cc2Cl)n1
REMARK SMILES IDX 6 1 7 2 8 3 9 4 18 5 2 6 5 7 4 8 1 9 3 10 10 11 11 12 16 13
REMARK SMILES IDX 12 14 15 15 13 16 17 17 14 18
REMARK H PARENT
ROOT
ATOM      1  N   UNL     1      87.331  49.273  43.610  1.00  0.00    -0.233 N 
ATOM      2  C   UNL     1      86.297  48.491  44.023  1.00  0.00     0.222 A 
ATOM      3  N   UNL     1      85.636  49.103  44.979  1.00  0.00    -0.215 NA
ATOM      4  C   UNL     1      86.291  50.307  45.118  1.00  0.00     0.182 A 
ATOM      5  N   UNL     1      87.359  50.424  44.317  1.00  0.00    -0.149 NA
ENDROOT
BRANCH   1   6
ATOM      6  C   UNL     1      88.323  49.037  42.552  1.00  0.00     0.145 C 
ATOM      7  N   UNL     1      87.997  50.719  40.542  1.00  0.00    -0.196 NA
ATOM      8  C   UNL     1      88.143  49.975  41.423  1.00  0.00     0.092 C 
ATOM      9  C   UNL     1      89.738  49.230  43.125  1.00  0.00     0.053 C 
ATOM     10  C   UNL     1      88.179  47.602  42.007  1.00  0.00     0.053 C 
ENDBRANCH   1   6
BRANCH   4  11
ATOM     11  C   UNL     1      85.877  51.292  46.108  1.00  0.00     0.040 A 
ATOM     12  C   UNL     1      84.901  52.234  45.728  1.00  0.00     0.015 A 
ATOM     13  C   UNL     1      86.398  51.358  47.412  1.00  0.00     0.053 A 
ATOM     14  C   UNL     1      84.441  53.200  46.626  1.00  0.00     0.021 A 
ATOM     15  C   UNL     1      85.935  52.327  48.312  1.00  0.00     0.041 A 
ATOM     16  C   UNL     1      84.958  53.239  47.917  1.00  0.00     0.042 A 
ATOM     17  Cl  UNL     1      87.659  50.319  47.989  1.00  0.00    -0.083 Cl
ATOM     18  Cl  UNL     1      84.397  54.426  49.028  1.00  0.00    -0.084 Cl
ENDBRANCH   4  11
TORSDOF 2
ENDMDL
MODEL 2
REMARK VINA RESULT:    -7.135      4.150      7.033
REMARK INTER + INTRA:          -8.331
REMARK INTER:                  -7.954
REMARK INTRA:                  -0.376
REMARK UNBOUND:                -0.361
REMARK SMILES CC(C)(C#N)n1cnc(-c2ccc(Cl)cc2Cl)n1
REMARK SMILES IDX 6 1 7 2 8 3 9 4 18 5 2 6 5 7 4 8 1 9 3 10 10 11 11 12 16 13
REMARK SMILES IDX 12 14 15 15 13 16 17 17 14 18
REMARK H PARENT
ROOT
ATOM      1  N   UNL     1      85.974  55.128  43.665  1.00  0.00    -0.233 N 
ATOM      2  C   UNL     1      85.432  54.888  42.440  1.00  0.00     0.222 A 
ATOM      3  N   UNL     1      86.034  53.861  41.887  1.00  0.00    -0.215 NA
ATOM      4  C   UNL     1      86.950  53.462  42.834  1.00  0.00     0.182 A 
ATOM      5  N   UNL     1      86.964  54.245  43.922  1.00  0.00    -0.149 NA
ENDROOT
BRANCH   1   6
ATOM      6  C   UNL     1      85.616  56.142  44.667  1.00  0.00     0.145 C 
ATOM      7  N   UNL     1      86.066  58.582  43.763  1.00  0.00    -0.196 NA
ATOM      8  C   UNL     1      85.867  57.511  44.166  1.00  0.00     0.092 C 
ATOM      9  C   UNL     1      84.120  56.017  45.010  1.00  0.00     0.053 C 
ATOM     10  C   UNL     1      86.455  55.940  45.944  1.00  0.00     0.053 C 
ENDBRANCH   1   6
BRANCH   4  11
ATOM     11  C   UNL     1      87.854  52.342  42.601  1.00  0.00     0.040 A 
ATOM     12  C   UNL     1      88.803  52.470  41.569  1.00  0.00     0.015 A 
ATOM     13  C   UNL     1      87.828  51.148  43.343  1.00  0.00     0.053 A 
ATOM     14  C   UNL     1      89.714  51.446  41.295  1.00  0.00     0.021 A 
ATOM     15  C   UNL     1      88.743  50.123  43.068  1.00  0.00     0.041 A 
ATOM     16  C   UNL     1      89.682  50.278  42.049  1.00  0.00     0.042 A 
ATOM     17  Cl  UNL     1      86.664  50.821  44.584  1.00  0.00    -0.083 Cl
ATOM     18  Cl  UNL     1      90.800  49.015  41.718  1.00  0.00    -0.084 Cl
ENDBRANCH   4  11
TORSDOF 2
ENDMDL
MODEL 3
REMARK VINA RESULT:    -7.093      3.881      4.603
REMARK INTER + INTRA:          -8.284
REMARK INTER:                  -7.913
REMARK INTRA:                  -0.371
REMARK UNBOUND:                -0.361
REMARK SMILES CC(C)(C#N)n1cnc(-c2ccc(Cl)cc2Cl)n1
REMARK SMILES IDX 6 1 7 2 8 3 9 4 18 5 2 6 5 7 4 8 1 9 3 10 10 11 11 12 16 13
REMARK SMILES IDX 12 14 15 15 13 16 17 17 14 18
REMARK H PARENT
ROOT
ATOM      1  N   UNL     1      87.668  52.273  42.209  1.00  0.00    -0.233 N 
ATOM      2  C   UNL     1      87.005  51.662  43.229  1.00  0.00     0.222 A 
ATOM      3  N   UNL     1      86.353  52.560  43.930  1.00  0.00    -0.215 NA
ATOM      4  C   UNL     1      86.621  53.746  43.283  1.00  0.00     0.182 A 
ATOM      5  N   UNL     1      87.457  53.607  42.245  1.00  0.00    -0.149 NA
ENDROOT
BRANCH   1   6
ATOM      6  C   UNL     1      88.499  51.689  41.147  1.00  0.00     0.145 C 
ATOM      7  N   UNL     1      88.182  52.981  38.865  1.00  0.00    -0.196 NA
ATOM      8  C   UNL     1      88.324  52.408  39.867  1.00  0.00     0.092 C 
ATOM      9  C   UNL     1      89.982  51.773  41.553  1.00  0.00     0.053 C 
ATOM     10  C   UNL     1      88.110  50.215  40.923  1.00  0.00     0.053 C 
ENDBRANCH   1   6
BRANCH   4  11
ATOM     11  C   UNL     1      86.091  55.016  43.764  1.00  0.00     0.040 A 
ATOM     12  C   UNL     1      86.493  55.452  45.042  1.00  0.00     0.015 A 
ATOM     13  C   UNL     1      85.205  55.823  43.029  1.00  0.00     0.053 A 
ATOM     14  C   UNL     1      86.041  56.666  45.566  1.00  0.00     0.021 A 
ATOM     15  C   UNL     1      84.754  57.041  43.556  1.00  0.00     0.041 A 
ATOM     16  C   UNL     1      85.176  57.457  44.817  1.00  0.00     0.042 A 
ATOM     17  Cl  UNL     1      84.564  55.374  41.483  1.00  0.00    -0.083 Cl
ATOM     18  Cl  UNL     1      84.616  58.952  45.455  1.00  0.00    -0.084 Cl
ENDBRANCH   4  11
TORSDOF 2
ENDMDL
MODEL 4
REMARK VINA RESULT:    -7.056      4.131      6.828
REMARK INTER + INTRA:          -8.242
REMARK INTER:                  -7.847
REMARK INTRA:                  -0.395
REMARK UNBOUND:                -0.361
REMARK SMILES CC(C)(C#N)n1cnc(-c2ccc(Cl)cc2Cl)n1
REMARK SMILES IDX 6 1 7 2 8 3 9 4 18 5 2 6 5 7 4 8 1 9 3 10 10 11 11 12 16 13
REMARK SMILES IDX 12 14 15 15 13 16 17 17 14 18
REMARK H PARENT
ROOT
ATOM      1  N   UNL     1      87.441  50.159  42.389  1.00  0.00    -0.233 N 
ATOM      2  C   UNL     1      87.763  49.908  41.090  1.00  0.00     0.222 A 
ATOM      3  N   UNL     1      87.909  48.615  40.916  1.00  0.00    -0.215 NA
ATOM      4  C   UNL     1      87.636  48.079  42.154  1.00  0.00     0.182 A 
ATOM      5  N   UNL     1      87.383  49.006  43.089  1.00  0.00    -0.149 NA
ENDROOT
BRANCH   1   6
ATOM      6  C   UNL     1      87.149  51.437  43.053  1.00  0.00     0.145 C 
ATOM      7  N   UNL     1      88.394  53.440  41.863  1.00  0.00    -0.196 NA
ATOM      8  C   UNL     1      87.845  52.562  42.391  1.00  0.00     0.092 C 
ATOM      9  C   UNL     1      85.634  51.706  43.003  1.00  0.00     0.053 C 
ATOM     10  C   UNL     1      87.615  51.386  44.522  1.00  0.00     0.053 C 
ENDBRANCH   1   6
BRANCH   4  11
ATOM     11  C   UNL     1      87.708  46.644  42.399  1.00  0.00     0.040 A 
ATOM     12  C   UNL     1      86.497  45.946  42.568  1.00  0.00     0.015 A 
ATOM     13  C   UNL     1      88.912  45.924  42.480  1.00  0.00     0.053 A 
ATOM     14  C   UNL     1      86.483  44.567  42.790  1.00  0.00     0.021 A 
ATOM     15  C   UNL     1      88.897  44.540  42.702  1.00  0.00     0.041 A 
ATOM     16  C   UNL     1      87.685  43.869  42.852  1.00  0.00     0.042 A 
ATOM     17  Cl  UNL     1      90.477  46.663  42.374  1.00  0.00    -0.083 Cl
ATOM     18  Cl  UNL     1      87.674  42.172  43.125  1.00  0.00    -0.084 Cl
ENDBRANCH   4  11
TORSDOF 2
ENDMDL
MODEL 5
REMARK VINA RESULT:    -6.952      2.554      3.646
REMARK INTER + INTRA:          -8.126
REMARK INTER:                  -7.722
REMARK INTRA:                  -0.403
REMARK UNBOUND:                -0.361
REMARK SMILES CC(C)(C#N)n1cnc(-c2ccc(Cl)cc2Cl)n1
REMARK SMILES IDX 6 1 7 2 8 3 9 4 18 5 2 6 5 7 4 8 1 9 3 10 10 11 11 12 16 13
REMARK SMILES IDX 12 14 15 15 13 16 17 17 14 18
REMARK H PARENT
ROOT
ATOM      1  N   UNL     1      86.032  47.206  43.534  1.00  0.00    -0.233 N 
ATOM      2  C   UNL     1      86.894  48.003  42.847  1.00  0.00     0.222 A 
ATOM      3  N   UNL     1      87.037  49.145  43.479  1.00  0.00    -0.215 NA
ATOM      4  C   UNL     1      86.248  49.006  44.599  1.00  0.00     0.182 A 
ATOM      5  N   UNL     1      85.587  47.840  44.641  1.00  0.00    -0.149 NA
ENDROOT
BRANCH   1   6
ATOM      6  C   UNL     1      85.586  45.835  43.245  1.00  0.00     0.145 C 
ATOM      7  N   UNL     1      87.573  44.357  42.326  1.00  0.00    -0.196 NA
ATOM      8  C   UNL     1      86.695  45.004  42.729  1.00  0.00     0.092 C 
ATOM      9  C   UNL     1      85.053  45.187  44.535  1.00  0.00     0.053 C 
ATOM     10  C   UNL     1      84.471  45.857  42.181  1.00  0.00     0.053 C 
ENDBRANCH   1   6
BRANCH   4  11
ATOM     11  C   UNL     1      86.109  50.080  45.574  1.00  0.00     0.040 A 
ATOM     12  C   UNL     1      86.763  49.929  46.812  1.00  0.00     0.015 A 
ATOM     13  C   UNL     1      85.360  51.248  45.351  1.00  0.00     0.053 A 
ATOM     14  C   UNL     1      86.691  50.922  47.793  1.00  0.00     0.021 A 
ATOM     15  C   UNL     1      85.289  52.244  46.335  1.00  0.00     0.041 A 
ATOM     16  C   UNL     1      85.957  52.078  47.547  1.00  0.00     0.042 A 
ATOM     17  Cl  UNL     1      84.438  51.531  43.910  1.00  0.00    -0.083 Cl
ATOM     18  Cl  UNL     1      85.864  53.304  48.749  1.00  0.00    -0.084 Cl
ENDBRANCH   4  11
TORSDOF 2
ENDMDL
MODEL 6
REMARK VINA RESULT:    -6.936      4.437      6.707
REMARK INTER + INTRA:          -8.108
REMARK INTER:                  -7.710
REMARK INTRA:                  -0.399
REMARK UNBOUND:                -0.361
REMARK SMILES CC(C)(C#N)n1cnc(-c2ccc(Cl)cc2Cl)n1
REMARK SMILES IDX 6 1 7 2 8 3 9 4 18 5 2 6 5 7 4 8 1 9 3 10 10 11 11 12 16 13
REMARK SMILES IDX 12 14 15 15 13 16 17 17 14 18
REMARK H PARENT
ROOT
ATOM      1  N   UNL     1      85.488  53.773  42.031  1.00  0.00    -0.233 N 
ATOM      2  C   UNL     1      86.247  54.441  42.942  1.00  0.00     0.222 A 
ATOM      3  N   UNL     1      87.302  53.722  43.248  1.00  0.00    -0.215 NA
ATOM      4  C   UNL     1      87.175  52.596  42.467  1.00  0.00     0.182 A 
ATOM      5  N   UNL     1      86.050  52.580  41.737  1.00  0.00    -0.149 NA
ENDROOT
BRANCH   1   6
ATOM      6  C   UNL     1      84.241  54.180  41.369  1.00  0.00     0.145 C 
ATOM      7  N   UNL     1      84.626  54.617  38.792  1.00  0.00    -0.196 NA
ATOM      8  C   UNL     1      84.452  54.427  39.926  1.00  0.00     0.092 C 
ATOM      9  C   UNL     1      83.191  53.064  41.522  1.00  0.00     0.053 C 
ATOM     10  C   UNL     1      83.707  55.480  42.003  1.00  0.00     0.053 C 
ENDBRANCH   1   6
BRANCH   4  11
ATOM     11  C   UNL     1      88.149  51.514  42.521  1.00  0.00     0.040 A 
ATOM     12  C   UNL     1      88.082  50.624  43.611  1.00  0.00     0.015 A 
ATOM     13  C   UNL     1      89.150  51.312  41.554  1.00  0.00     0.053 A 
ATOM     14  C   UNL     1      88.971  49.552  43.725  1.00  0.00     0.021 A 
ATOM     15  C   UNL     1      90.040  50.235  41.669  1.00  0.00     0.041 A 
ATOM     16  C   UNL     1      89.944  49.361  42.750  1.00  0.00     0.042 A 
ATOM     17  Cl  UNL     1      89.403  52.372  40.207  1.00  0.00    -0.083 Cl
ATOM     18  Cl  UNL     1      91.041  48.044  42.884  1.00  0.00    -0.084 Cl
ENDBRANCH   4  11
TORSDOF 2
ENDMDL
MODEL 7
REMARK VINA RESULT:    -6.815      3.903      5.218
REMARK INTER + INTRA:          -7.973
REMARK INTER:                  -7.692
REMARK INTRA:                  -0.281
REMARK UNBOUND:                -0.361
REMARK SMILES CC(C)(C#N)n1cnc(-c2ccc(Cl)cc2Cl)n1
REMARK SMILES IDX 6 1 7 2 8 3 9 4 18 5 2 6 5 7 4 8 1 9 3 10 10 11 11 12 16 13
REMARK SMILES IDX 12 14 15 15 13 16 17 17 14 18
REMARK H PARENT
ROOT
ATOM      1  N   UNL     1      86.487  45.100  43.646  1.00  0.00    -0.233 N 
ATOM      2  C   UNL     1      85.355  44.809  44.344  1.00  0.00     0.222 A 
ATOM      3  N   UNL     1      84.684  45.914  44.574  1.00  0.00    -0.215 NA
ATOM      4  C   UNL     1      85.436  46.893  43.964  1.00  0.00     0.182 A 
ATOM      5  N   UNL     1      86.570  46.429  43.419  1.00  0.00    -0.149 NA
ENDROOT
BRANCH   1   6
ATOM      6  C   UNL     1      87.530  44.201  43.133  1.00  0.00     0.145 C 
ATOM      7  N   UNL     1      88.622  42.792  45.082  1.00  0.00    -0.196 NA
ATOM      8  C   UNL     1      88.146  43.410  44.221  1.00  0.00     0.092 C 
ATOM      9  C   UNL     1      86.911  43.226  42.114  1.00  0.00     0.053 C 
ATOM     10  C   UNL     1      88.643  45.020  42.450  1.00  0.00     0.053 C 
ENDBRANCH   1   6
BRANCH   4  11
ATOM     11  C   UNL     1      85.043  48.295  44.004  1.00  0.00     0.040 A 
ATOM     12  C   UNL     1      85.956  49.218  44.551  1.00  0.00     0.015 A 
ATOM     13  C   UNL     1      83.809  48.775  43.532  1.00  0.00     0.053 A 
ATOM     14  C   UNL     1      85.658  50.581  44.610  1.00  0.00     0.021 A 
ATOM     15  C   UNL     1      83.511  50.144  43.591  1.00  0.00     0.041 A 
ATOM     16  C   UNL     1      84.437  51.039  44.125  1.00  0.00     0.042 A 
ATOM     17  Cl  UNL     1      82.559  47.748  42.911  1.00  0.00    -0.083 Cl
ATOM     18  Cl  UNL     1      84.064  52.716  44.194  1.00  0.00    -0.084 Cl
ENDBRANCH   4  11
TORSDOF 2
ENDMDL
MODEL 8
REMARK VINA RESULT:    -6.765      3.187      6.628
REMARK INTER + INTRA:          -7.917
REMARK INTER:                  -7.556
REMARK INTRA:                  -0.361
REMARK UNBOUND:                -0.361
REMARK SMILES CC(C)(C#N)n1cnc(-c2ccc(Cl)cc2Cl)n1
REMARK SMILES IDX 6 1 7 2 8 3 9 4 18 5 2 6 5 7 4 8 1 9 3 10 10 11 11 12 16 13
REMARK SMILES IDX 12 14 15 15 13 16 17 17 14 18
REMARK H PARENT
ROOT
ATOM      1  N   UNL     1      85.668  53.798  45.932  1.00  0.00    -0.233 N 
ATOM      2  C   UNL     1      84.932  53.826  44.788  1.00  0.00     0.222 A 
ATOM      3  N   UNL     1      85.494  53.056  43.885  1.00  0.00    -0.215 NA
ATOM      4  C   UNL     1      86.591  52.532  44.530  1.00  0.00     0.182 A 
ATOM      5  N   UNL     1      86.747  52.999  45.777  1.00  0.00    -0.149 NA
ENDROOT
BRANCH   1   6
ATOM      6  C   UNL     1      85.428  54.464  47.220  1.00  0.00     0.145 C 
ATOM      7  N   UNL     1      82.850  54.885  47.613  1.00  0.00    -0.196 NA
ATOM      8  C   UNL     1      83.986  54.704  47.444  1.00  0.00     0.092 C 
ATOM      9  C   UNL     1      85.957  53.578  48.362  1.00  0.00     0.053 C 
ATOM     10  C   UNL     1      86.148  55.827  47.250  1.00  0.00     0.053 C 
ENDBRANCH   1   6
BRANCH   4  11
ATOM     11  C   UNL     1      87.513  51.625  43.858  1.00  0.00     0.040 A 
ATOM     12  C   UNL     1      88.117  52.069  42.665  1.00  0.00     0.015 A 
ATOM     13  C   UNL     1      87.828  50.338  44.328  1.00  0.00     0.053 A 
ATOM     14  C   UNL     1      89.023  51.263  41.971  1.00  0.00     0.021 A 
ATOM     15  C   UNL     1      88.739  49.532  43.632  1.00  0.00     0.041 A 
ATOM     16  C   UNL     1      89.333  49.999  42.461  1.00  0.00     0.042 A 
ATOM     17  Cl  UNL     1      87.100  49.631  45.733  1.00  0.00    -0.083 Cl
ATOM     18  Cl  UNL     1      90.448  49.003  41.612  1.00  0.00    -0.084 Cl
ENDBRANCH   4  11
TORSDOF 2
ENDMDL
MODEL 9
REMARK VINA RESULT:    -6.706      1.486      2.059
REMARK INTER + INTRA:          -7.851
REMARK INTER:                  -7.673
REMARK INTRA:                  -0.178
REMARK UNBOUND:                -0.361
REMARK SMILES CC(C)(C#N)n1cnc(-c2ccc(Cl)cc2Cl)n1
REMARK SMILES IDX 6 1 7 2 8 3 9 4 18 5 2 6 5 7 4 8 1 9 3 10 10 11 11 12 16 13
REMARK SMILES IDX 12 14 15 15 13 16 17 17 14 18
REMARK H PARENT
ROOT
ATOM      1  N   UNL     1      88.635  50.293  43.040  1.00  0.00    -0.233 N 
ATOM      2  C   UNL     1      88.453  51.548  42.544  1.00  0.00     0.222 A 
ATOM      3  N   UNL     1      87.748  52.258  43.393  1.00  0.00    -0.215 NA
ATOM      4  C   UNL     1      87.526  51.397  44.445  1.00  0.00     0.182 A 
ATOM      5  N   UNL     1      88.026  50.170  44.239  1.00  0.00    -0.149 NA
ENDROOT
BRANCH   1   6
ATOM      6  C   UNL     1      89.378  49.159  42.474  1.00  0.00     0.145 C 
ATOM      7  N   UNL     1      87.740  47.262  41.640  1.00  0.00    -0.196 NA
ATOM      8  C   UNL     1      88.465  48.093  42.006  1.00  0.00     0.092 C 
ATOM      9  C   UNL     1      90.216  49.642  41.276  1.00  0.00     0.053 C 
ATOM     10  C   UNL     1      90.310  48.554  43.542  1.00  0.00     0.053 C 
ENDBRANCH   1   6
BRANCH   4  11
ATOM     11  C   UNL     1      86.748  51.797  45.610  1.00  0.00     0.040 A 
ATOM     12  C   UNL     1      85.679  52.691  45.410  1.00  0.00     0.015 A 
ATOM     13  C   UNL     1      87.006  51.345  46.916  1.00  0.00     0.053 A 
ATOM     14  C   UNL     1      84.877  53.109  46.475  1.00  0.00     0.021 A 
ATOM     15  C   UNL     1      86.200  51.764  47.983  1.00  0.00     0.041 A 
ATOM     16  C   UNL     1      85.140  52.639  47.757  1.00  0.00     0.042 A 
ATOM     17  Cl  UNL     1      88.336  50.311  47.323  1.00  0.00    -0.083 Cl
ATOM     18  Cl  UNL     1      84.156  53.149  49.072  1.00  0.00    -0.084 Cl
ENDBRANCH   4  11
TORSDOF 2
ENDMDL
