MODEL 1
REMARK VINA RESULT:   -10.231      0.000      0.000
REMARK INTER + INTRA:         -13.561
REMARK INTER:                 -12.555
REMARK INTRA:                  -1.006
REMARK UNBOUND:                -0.938
REMARK SMILES CC(C)=CCc1c2c(c(O)c3c1OC(c1ccc(O)cc1)CC3=O)C=CC(C)(C)O2
REMARK SMILES IDX 6 1 12 2 13 3 14 4 22 5 23 6 24 7 11 8 9 9 8 10 7 11 30 12
REMARK SMILES IDX 27 13 28 14 29 15 26 16 25 17 5 18 4 19 2 20 1 21 3 22 15 23
REMARK SMILES IDX 16 24 21 25 17 26 20 27 18 28 19 29 10 31
REMARK H PARENT 19 30 10 32
ROOT
ATOM      1  C   UNL     1      85.845  49.951  43.536  1.00  0.00     0.042 A 
ATOM      2  C   UNL     1      86.632  51.020  43.074  1.00  0.00     0.142 A 
ATOM      3  O   UNL     1      86.236  52.291  43.415  1.00  0.00    -0.484 OA
ATOM      4  C   UNL     1      86.658  53.284  42.470  1.00  0.00     0.211 C 
ATOM      5  C   UNL     1      88.173  53.295  42.367  1.00  0.00     0.131 C 
ATOM      6  C   UNL     1      88.615  51.933  41.914  1.00  0.00     0.174 C 
ATOM      7  O   UNL     1      89.643  51.752  41.265  1.00  0.00    -0.294 OA
ATOM      8  C   UNL     1      87.789  50.777  42.325  1.00  0.00     0.103 A 
ATOM      9  C   UNL     1      88.158  49.466  42.001  1.00  0.00     0.141 A 
ATOM     10  C   UNL     1      87.369  48.387  42.426  1.00  0.00     0.060 A 
ATOM     11  C   UNL     1      86.216  48.636  43.188  1.00  0.00     0.138 A 
ATOM     12  O   UNL     1      85.405  47.634  43.652  1.00  0.00    -0.483 OA
ATOM     13  C   UNL     1      85.581  46.290  43.160  1.00  0.00     0.122 C 
ATOM     14  C   UNL     1      84.410  46.000  42.216  1.00  0.00     0.061 C 
ATOM     15  C   UNL     1      85.489  45.379  44.391  1.00  0.00     0.061 C 
ATOM     16  C   UNL     1      86.884  46.033  42.450  1.00  0.00     0.021 C 
ATOM     17  C   UNL     1      87.729  47.009  42.108  1.00  0.00     0.015 C 
ENDROOT
BRANCH   1  18
ATOM     18  C   UNL     1      84.584  50.215  44.339  1.00  0.00     0.070 C 
BRANCH  18  19
ATOM     19  C   UNL     1      83.425  50.598  43.456  1.00  0.00    -0.023 C 
ATOM     20  C   UNL     1      82.288  49.913  43.217  1.00  0.00    -0.080 C 
ATOM     21  C   UNL     1      81.931  48.580  43.815  1.00  0.00     0.039 C 
ATOM     22  C   UNL     1      81.242  50.469  42.287  1.00  0.00     0.039 C 
ENDBRANCH  18  19
ENDBRANCH   1  18
BRANCH   4  23
ATOM     23  C   UNL     1      86.137  54.636  42.918  1.00  0.00    -0.007 A 
ATOM     24  C   UNL     1      86.880  55.414  43.821  1.00  0.00     0.011 A 
ATOM     25  C   UNL     1      84.901  55.128  42.464  1.00  0.00     0.011 A 
ATOM     26  C   UNL     1      86.407  56.655  44.252  1.00  0.00     0.046 A 
ATOM     27  C   UNL     1      84.429  56.368  42.895  1.00  0.00     0.046 A 
ATOM     28  C   UNL     1      85.183  57.122  43.783  1.00  0.00     0.115 A 
BRANCH  28  29
ATOM     29  O   UNL     1      84.684  58.327  44.177  1.00  0.00    -0.508 OA
ATOM     30  H   UNL     1      83.728  58.235  44.325  1.00  0.00     0.293 HD
ENDBRANCH  28  29
ENDBRANCH   4  23
BRANCH   9  31
ATOM     31  O   UNL     1      89.290  49.199  41.266  1.00  0.00    -0.506 OA
ATOM     32  H   UNL     1      89.027  48.739  40.437  1.00  0.00     0.293 HD
ENDBRANCH   9  31
TORSDOF 5
ENDMDL
MODEL 2
REMARK VINA RESULT:   -10.017      2.643      5.763
REMARK INTER + INTRA:         -13.298
REMARK INTER:                 -12.292
REMARK INTRA:                  -1.006
REMARK UNBOUND:                -0.938
REMARK SMILES CC(C)=CCc1c2c(c(O)c3c1OC(c1ccc(O)cc1)CC3=O)C=CC(C)(C)O2
REMARK SMILES IDX 6 1 12 2 13 3 14 4 22 5 23 6 24 7 11 8 9 9 8 10 7 11 30 12
REMARK SMILES IDX 27 13 28 14 29 15 26 16 25 17 5 18 4 19 2 20 1 21 3 22 15 23
REMARK SMILES IDX 16 24 21 25 17 26 20 27 18 28 19 29 10 31
REMARK H PARENT 19 30 10 32
ROOT
ATOM      1  C   UNL     1      86.354  49.151  43.345  1.00  0.00     0.042 A 
ATOM      2  C   UNL     1      85.294  50.014  43.020  1.00  0.00     0.142 A 
ATOM      3  O   UNL     1      84.048  49.696  43.502  1.00  0.00    -0.484 OA
ATOM      4  C   UNL     1      82.983  50.200  42.685  1.00  0.00     0.211 C 
ATOM      5  C   UNL     1      83.061  51.714  42.601  1.00  0.00     0.131 C 
ATOM      6  C   UNL     1      84.387  52.074  41.996  1.00  0.00     0.174 C 
ATOM      7  O   UNL     1      84.560  53.099  41.341  1.00  0.00    -0.294 OA
ATOM      8  C   UNL     1      85.525  51.167  42.260  1.00  0.00     0.103 A 
ATOM      9  C   UNL     1      86.812  51.455  41.788  1.00  0.00     0.141 A 
ATOM     10  C   UNL     1      87.878  50.590  42.075  1.00  0.00     0.060 A 
ATOM     11  C   UNL     1      87.642  49.442  42.848  1.00  0.00     0.138 A 
ATOM     12  O   UNL     1      88.635  48.559  43.183  1.00  0.00    -0.483 OA
ATOM     13  C   UNL     1      89.922  48.655  42.539  1.00  0.00     0.122 C 
ATOM     14  C   UNL     1      90.020  47.485  41.555  1.00  0.00     0.061 C 
ATOM     15  C   UNL     1      90.961  48.481  43.654  1.00  0.00     0.061 C 
ATOM     16  C   UNL     1      90.180  49.952  41.818  1.00  0.00     0.021 C 
ATOM     17  C   UNL     1      89.230  50.865  41.601  1.00  0.00     0.015 C 
ENDROOT
BRANCH   1  18
ATOM     18  C   UNL     1      86.102  47.896  44.159  1.00  0.00     0.070 C 
BRANCH  18  19
ATOM     19  C   UNL     1      86.044  46.664  43.293  1.00  0.00    -0.023 C 
ATOM     20  C   UNL     1      85.032  45.785  43.148  1.00  0.00    -0.080 C 
ATOM     21  C   UNL     1      83.700  45.866  43.842  1.00  0.00     0.039 C 
ATOM     22  C   UNL     1      85.175  44.600  42.228  1.00  0.00     0.039 C 
ENDBRANCH  18  19
ENDBRANCH   1  18
BRANCH   4  23
ATOM     23  C   UNL     1      81.660  49.759  43.283  1.00  0.00    -0.007 A 
ATOM     24  C   UNL     1      81.619  48.686  44.189  1.00  0.00     0.011 A 
ATOM     25  C   UNL     1      80.455  50.390  42.932  1.00  0.00     0.011 A 
ATOM     26  C   UNL     1      80.407  48.262  44.738  1.00  0.00     0.046 A 
ATOM     27  C   UNL     1      79.244  49.966  43.481  1.00  0.00     0.046 A 
ATOM     28  C   UNL     1      79.229  48.907  44.379  1.00  0.00     0.115 A 
BRANCH  28  29
ATOM     29  O   UNL     1      78.025  48.526  44.890  1.00  0.00    -0.508 OA
ATOM     30  H   UNL     1      78.180  47.920  45.634  1.00  0.00     0.293 HD
ENDBRANCH  28  29
ENDBRANCH   4  23
BRANCH   9  31
ATOM     31  O   UNL     1      87.067  52.581  41.039  1.00  0.00    -0.506 OA
ATOM     32  H   UNL     1      87.922  52.968  41.333  1.00  0.00     0.293 HD
ENDBRANCH   9  31
TORSDOF 5
ENDMDL
MODEL 3
REMARK VINA RESULT:    -9.745      3.581      6.902
REMARK INTER + INTRA:         -12.962
REMARK INTER:                 -11.975
REMARK INTRA:                  -0.986
REMARK UNBOUND:                -0.938
REMARK SMILES CC(C)=CCc1c2c(c(O)c3c1OC(c1ccc(O)cc1)CC3=O)C=CC(C)(C)O2
REMARK SMILES IDX 6 1 12 2 13 3 14 4 22 5 23 6 24 7 11 8 9 9 8 10 7 11 30 12
REMARK SMILES IDX 27 13 28 14 29 15 26 16 25 17 5 18 4 19 2 20 1 21 3 22 15 23
REMARK SMILES IDX 16 24 21 25 17 26 20 27 18 28 19 29 10 31
REMARK H PARENT 19 30 10 32
ROOT
ATOM      1  C   UNL     1      86.582  48.261  42.995  1.00  0.00     0.042 A 
ATOM      2  C   UNL     1      85.580  47.279  42.907  1.00  0.00     0.142 A 
ATOM      3  O   UNL     1      84.295  47.658  43.206  1.00  0.00    -0.484 OA
ATOM      4  C   UNL     1      83.486  46.575  43.688  1.00  0.00     0.211 C 
ATOM      5  C   UNL     1      83.402  45.481  42.639  1.00  0.00     0.131 C 
ATOM      6  C   UNL     1      84.797  44.998  42.363  1.00  0.00     0.174 C 
ATOM      7  O   UNL     1      85.041  43.851  41.995  1.00  0.00    -0.294 OA
ATOM      8  C   UNL     1      85.896  45.979  42.497  1.00  0.00     0.103 A 
ATOM      9  C   UNL     1      87.221  45.634  42.201  1.00  0.00     0.141 A 
ATOM     10  C   UNL     1      88.240  46.591  42.312  1.00  0.00     0.060 A 
ATOM     11  C   UNL     1      87.915  47.897  42.712  1.00  0.00     0.138 A 
ATOM     12  O   UNL     1      88.852  48.890  42.828  1.00  0.00    -0.483 OA
ATOM     13  C   UNL     1      90.254  48.556  42.777  1.00  0.00     0.122 C 
ATOM     14  C   UNL     1      90.798  48.683  44.203  1.00  0.00     0.061 C 
ATOM     15  C   UNL     1      90.904  49.617  41.880  1.00  0.00     0.061 C 
ATOM     16  C   UNL     1      90.566  47.187  42.231  1.00  0.00     0.021 C 
ATOM     17  C   UNL     1      89.628  46.264  42.006  1.00  0.00     0.015 C 
ENDROOT
BRANCH   1  18
ATOM     18  C   UNL     1      86.241  49.668  43.451  1.00  0.00     0.070 C 
BRANCH  18  19
ATOM     19  C   UNL     1      86.165  49.771  44.952  1.00  0.00    -0.023 C 
ATOM     20  C   UNL     1      86.830  50.610  45.772  1.00  0.00    -0.080 C 
ATOM     21  C   UNL     1      87.814  51.660  45.334  1.00  0.00     0.039 C 
ATOM     22  C   UNL     1      86.618  50.550  47.263  1.00  0.00     0.039 C 
ENDBRANCH  18  19
ENDBRANCH   1  18
BRANCH   4  23
ATOM     23  C   UNL     1      82.107  47.109  44.024  1.00  0.00    -0.007 A 
ATOM     24  C   UNL     1      81.128  46.249  44.550  1.00  0.00     0.011 A 
ATOM     25  C   UNL     1      81.771  48.455  43.800  1.00  0.00     0.011 A 
ATOM     26  C   UNL     1      79.850  46.723  44.853  1.00  0.00     0.046 A 
ATOM     27  C   UNL     1      80.493  48.928  44.103  1.00  0.00     0.046 A 
ATOM     28  C   UNL     1      79.544  48.061  44.627  1.00  0.00     0.115 A 
BRANCH  28  29
ATOM     29  O   UNL     1      78.310  48.566  44.909  1.00  0.00    -0.508 OA
ATOM     30  H   UNL     1      77.726  48.402  44.150  1.00  0.00     0.293 HD
ENDBRANCH  28  29
ENDBRANCH   4  23
BRANCH   9  31
ATOM     31  O   UNL     1      87.559  44.363  41.795  1.00  0.00    -0.506 OA
ATOM     32  H   UNL     1      87.309  43.729  42.504  1.00  0.00     0.293 HD
ENDBRANCH   9  31
TORSDOF 5
ENDMDL
MODEL 4
REMARK VINA RESULT:    -9.502      2.212      8.284
REMARK INTER + INTRA:         -12.662
REMARK INTER:                 -11.816
REMARK INTRA:                  -0.846
REMARK UNBOUND:                -0.938
REMARK SMILES CC(C)=CCc1c2c(c(O)c3c1OC(c1ccc(O)cc1)CC3=O)C=CC(C)(C)O2
REMARK SMILES IDX 6 1 12 2 13 3 14 4 22 5 23 6 24 7 11 8 9 9 8 10 7 11 30 12
REMARK SMILES IDX 27 13 28 14 29 15 26 16 25 17 5 18 4 19 2 20 1 21 3 22 15 23
REMARK SMILES IDX 16 24 21 25 17 26 20 27 18 28 19 29 10 31
REMARK H PARENT 19 30 10 32
ROOT
ATOM      1  C   UNL     1      86.442  50.454  44.453  1.00  0.00     0.042 A 
ATOM      2  C   UNL     1      85.648  49.359  44.072  1.00  0.00     0.142 A 
ATOM      3  O   UNL     1      86.238  48.119  44.075  1.00  0.00    -0.484 OA
ATOM      4  C   UNL     1      85.635  47.207  43.146  1.00  0.00     0.211 C 
ATOM      5  C   UNL     1      84.168  47.011  43.485  1.00  0.00     0.131 C 
ATOM      6  C   UNL     1      83.492  48.349  43.403  1.00  0.00     0.174 C 
ATOM      7  O   UNL     1      82.304  48.476  43.117  1.00  0.00    -0.294 OA
ATOM      8  C   UNL     1      84.301  49.542  43.739  1.00  0.00     0.103 A 
ATOM      9  C   UNL     1      83.738  50.824  43.750  1.00  0.00     0.141 A 
ATOM     10  C   UNL     1      84.522  51.934  44.097  1.00  0.00     0.060 A 
ATOM     11  C   UNL     1      85.869  51.743  44.443  1.00  0.00     0.138 A 
ATOM     12  O   UNL     1      86.693  52.776  44.808  1.00  0.00    -0.483 OA
ATOM     13  C   UNL     1      86.260  54.137  44.611  1.00  0.00     0.122 C 
ATOM     14  C   UNL     1      87.058  54.695  43.427  1.00  0.00     0.061 C 
ATOM     15  C   UNL     1      86.644  54.887  45.892  1.00  0.00     0.061 C 
ATOM     16  C   UNL     1      84.785  54.308  44.358  1.00  0.00     0.021 C 
ATOM     17  C   UNL     1      83.964  53.282  44.122  1.00  0.00     0.015 C 
ENDROOT
BRANCH   1  18
ATOM     18  C   UNL     1      87.905  50.257  44.803  1.00  0.00     0.070 C 
BRANCH  18  19
ATOM     19  C   UNL     1      88.687  49.673  43.655  1.00  0.00    -0.023 C 
ATOM     20  C   UNL     1      89.080  50.274  42.514  1.00  0.00    -0.080 C 
ATOM     21  C   UNL     1      88.818  51.709  42.148  1.00  0.00     0.039 C 
ATOM     22  C   UNL     1      89.856  49.507  41.474  1.00  0.00     0.039 C 
ENDBRANCH  18  19
ENDBRANCH   1  18
BRANCH   4  23
ATOM     23  C   UNL     1      86.384  45.889  43.200  1.00  0.00    -0.007 A 
ATOM     24  C   UNL     1      87.575  45.726  42.474  1.00  0.00     0.011 A 
ATOM     25  C   UNL     1      85.898  44.805  43.950  1.00  0.00     0.011 A 
ATOM     26  C   UNL     1      88.269  44.514  42.505  1.00  0.00     0.046 A 
ATOM     27  C   UNL     1      86.591  43.594  43.981  1.00  0.00     0.046 A 
ATOM     28  C   UNL     1      87.770  43.458  43.260  1.00  0.00     0.115 A 
BRANCH  28  29
ATOM     29  O   UNL     1      88.415  42.259  43.319  1.00  0.00    -0.508 OA
ATOM     30  H   UNL     1      87.782  41.579  43.603  1.00  0.00     0.293 HD
ENDBRANCH  28  29
ENDBRANCH   4  23
BRANCH   9  31
ATOM     31  O   UNL     1      82.417  51.032  43.427  1.00  0.00    -0.506 OA
ATOM     32  H   UNL     1      82.074  50.231  42.971  1.00  0.00     0.293 HD
ENDBRANCH   9  31
TORSDOF 5
ENDMDL
MODEL 5
REMARK VINA RESULT:    -9.377      2.499      8.315
REMARK INTER + INTRA:         -12.507
REMARK INTER:                 -11.487
REMARK INTRA:                  -1.021
REMARK UNBOUND:                -0.938
REMARK SMILES CC(C)=CCc1c2c(c(O)c3c1OC(c1ccc(O)cc1)CC3=O)C=CC(C)(C)O2
REMARK SMILES IDX 6 1 12 2 13 3 14 4 22 5 23 6 24 7 11 8 9 9 8 10 7 11 30 12
REMARK SMILES IDX 27 13 28 14 29 15 26 16 25 17 5 18 4 19 2 20 1 21 3 22 15 23
REMARK SMILES IDX 16 24 21 25 17 26 20 27 18 28 19 29 10 31
REMARK H PARENT 19 30 10 32
ROOT
ATOM      1  C   UNL     1      84.427  51.121  42.488  1.00  0.00     0.042 A 
ATOM      2  C   UNL     1      83.750  49.927  42.789  1.00  0.00     0.142 A 
ATOM      3  O   UNL     1      84.513  48.835  43.126  1.00  0.00    -0.484 OA
ATOM      4  C   UNL     1      83.875  47.587  42.821  1.00  0.00     0.211 C 
ATOM      5  C   UNL     1      82.563  47.473  43.577  1.00  0.00     0.131 C 
ATOM      6  C   UNL     1      81.686  48.615  43.154  1.00  0.00     0.174 C 
ATOM      7  O   UNL     1      80.459  48.546  43.159  1.00  0.00    -0.294 OA
ATOM      8  C   UNL     1      82.352  49.880  42.772  1.00  0.00     0.103 A 
ATOM      9  C   UNL     1      81.611  51.017  42.423  1.00  0.00     0.141 A 
ATOM     10  C   UNL     1      82.268  52.210  42.090  1.00  0.00     0.060 A 
ATOM     11  C   UNL     1      83.671  52.254  42.121  1.00  0.00     0.138 A 
ATOM     12  O   UNL     1      84.383  53.387  41.824  1.00  0.00    -0.483 OA
ATOM     13  C   UNL     1      83.711  54.514  41.227  1.00  0.00     0.122 C 
ATOM     14  C   UNL     1      84.140  54.567  39.757  1.00  0.00     0.061 C 
ATOM     15  C   UNL     1      84.238  55.752  41.963  1.00  0.00     0.061 C 
ATOM     16  C   UNL     1      82.207  54.485  41.319  1.00  0.00     0.021 C 
ATOM     17  C   UNL     1      81.526  53.412  41.727  1.00  0.00     0.015 C 
ENDROOT
BRANCH   1  18
ATOM     18  C   UNL     1      85.944  51.168  42.496  1.00  0.00     0.070 C 
BRANCH  18  19
ATOM     19  C   UNL     1      86.489  51.548  43.849  1.00  0.00    -0.023 C 
ATOM     20  C   UNL     1      87.474  50.957  44.554  1.00  0.00    -0.080 C 
ATOM     21  C   UNL     1      88.265  49.757  44.111  1.00  0.00     0.039 C 
ATOM     22  C   UNL     1      87.871  51.490  45.907  1.00  0.00     0.039 C 
ENDBRANCH  18  19
ENDBRANCH   1  18
BRANCH   4  23
ATOM     23  C   UNL     1      84.815  46.455  43.193  1.00  0.00    -0.007 A 
ATOM     24  C   UNL     1      84.338  45.358  43.928  1.00  0.00     0.011 A 
ATOM     25  C   UNL     1      86.173  46.488  42.836  1.00  0.00     0.011 A 
ATOM     26  C   UNL     1      85.193  44.314  44.289  1.00  0.00     0.046 A 
ATOM     27  C   UNL     1      87.028  45.445  43.196  1.00  0.00     0.046 A 
ATOM     28  C   UNL     1      86.533  44.368  43.918  1.00  0.00     0.115 A 
BRANCH  28  29
ATOM     29  O   UNL     1      87.402  43.372  44.248  1.00  0.00    -0.508 OA
ATOM     30  H   UNL     1      87.152  43.016  45.117  1.00  0.00     0.293 HD
ENDBRANCH  28  29
ENDBRANCH   4  23
BRANCH   9  31
ATOM     31  O   UNL     1      80.236  50.999  42.398  1.00  0.00    -0.506 OA
ATOM     32  H   UNL     1      79.909  51.926  42.402  1.00  0.00     0.293 HD
ENDBRANCH   9  31
TORSDOF 5
ENDMDL
MODEL 6
REMARK VINA RESULT:    -9.236      3.400      7.608
REMARK INTER + INTRA:         -12.334
REMARK INTER:                 -12.272
REMARK INTRA:                  -0.061
REMARK UNBOUND:                -0.938
REMARK SMILES CC(C)=CCc1c2c(c(O)c3c1OC(c1ccc(O)cc1)CC3=O)C=CC(C)(C)O2
REMARK SMILES IDX 6 1 12 2 13 3 14 4 22 5 23 6 24 7 11 8 9 9 8 10 7 11 30 12
REMARK SMILES IDX 27 13 28 14 29 15 26 16 25 17 5 18 4 19 2 20 1 21 3 22 15 23
REMARK SMILES IDX 16 24 21 25 17 26 20 27 18 28 19 29 10 31
REMARK H PARENT 19 30 10 32
ROOT
ATOM      1  C   UNL     1      86.216  53.676  44.516  1.00  0.00     0.042 A 
ATOM      2  C   UNL     1      86.592  53.052  43.314  1.00  0.00     0.142 A 
ATOM      3  O   UNL     1      87.343  51.905  43.406  1.00  0.00    -0.484 OA
ATOM      4  C   UNL     1      88.173  51.684  42.257  1.00  0.00     0.211 C 
ATOM      5  C   UNL     1      87.316  51.565  41.009  1.00  0.00     0.131 C 
ATOM      6  C   UNL     1      86.551  52.846  40.851  1.00  0.00     0.174 C 
ATOM      7  O   UNL     1      86.194  53.274  39.755  1.00  0.00    -0.294 OA
ATOM      8  C   UNL     1      86.179  53.575  42.084  1.00  0.00     0.103 A 
ATOM      9  C   UNL     1      85.413  54.746  42.036  1.00  0.00     0.141 A 
ATOM     10  C   UNL     1      85.053  55.402  43.222  1.00  0.00     0.060 A 
ATOM     11  C   UNL     1      85.460  54.865  44.454  1.00  0.00     0.138 A 
ATOM     12  O   UNL     1      85.135  55.440  45.655  1.00  0.00    -0.483 OA
ATOM     13  C   UNL     1      84.563  56.764  45.679  1.00  0.00     0.122 C 
ATOM     14  C   UNL     1      85.652  57.714  46.187  1.00  0.00     0.061 C 
ATOM     15  C   UNL     1      83.415  56.704  46.695  1.00  0.00     0.061 C 
ATOM     16  C   UNL     1      84.032  57.256  44.358  1.00  0.00     0.021 C 
ATOM     17  C   UNL     1      84.252  56.621  43.205  1.00  0.00     0.015 C 
ENDROOT
BRANCH   1  18
ATOM     18  C   UNL     1      86.674  53.116  45.850  1.00  0.00     0.070 C 
BRANCH  18  19
ATOM     19  C   UNL     1      85.631  53.294  46.923  1.00  0.00    -0.023 C 
ATOM     20  C   UNL     1      85.459  52.581  48.055  1.00  0.00    -0.080 C 
ATOM     21  C   UNL     1      86.314  51.425  48.496  1.00  0.00     0.039 C 
ATOM     22  C   UNL     1      84.340  52.917  49.006  1.00  0.00     0.039 C 
ENDBRANCH  18  19
ENDBRANCH   1  18
BRANCH   4  23
ATOM     23  C   UNL     1      88.985  50.421  42.478  1.00  0.00    -0.007 A 
ATOM     24  C   UNL     1      89.785  49.909  41.443  1.00  0.00     0.011 A 
ATOM     25  C   UNL     1      88.940  49.730  43.701  1.00  0.00     0.011 A 
ATOM     26  C   UNL     1      90.528  48.741  41.628  1.00  0.00     0.046 A 
ATOM     27  C   UNL     1      89.683  48.563  43.885  1.00  0.00     0.046 A 
ATOM     28  C   UNL     1      90.471  48.078  42.850  1.00  0.00     0.115 A 
BRANCH  28  29
ATOM     29  O   UNL     1      91.179  46.936  43.074  1.00  0.00    -0.508 OA
ATOM     30  H   UNL     1      91.434  46.555  42.217  1.00  0.00     0.293 HD
ENDBRANCH  28  29
ENDBRANCH   4  23
BRANCH   9  31
ATOM     31  O   UNL     1      84.993  55.281  40.840  1.00  0.00    -0.506 OA
ATOM     32  H   UNL     1      84.307  54.692  40.454  1.00  0.00     0.293 HD
ENDBRANCH   9  31
TORSDOF 5
ENDMDL
MODEL 7
REMARK VINA RESULT:    -9.214      2.408      8.158
REMARK INTER + INTRA:         -12.306
REMARK INTER:                 -11.287
REMARK INTRA:                  -1.019
REMARK UNBOUND:                -0.938
REMARK SMILES CC(C)=CCc1c2c(c(O)c3c1OC(c1ccc(O)cc1)CC3=O)C=CC(C)(C)O2
REMARK SMILES IDX 6 1 12 2 13 3 14 4 22 5 23 6 24 7 11 8 9 9 8 10 7 11 30 12
REMARK SMILES IDX 27 13 28 14 29 15 26 16 25 17 5 18 4 19 2 20 1 21 3 22 15 23
REMARK SMILES IDX 16 24 21 25 17 26 20 27 18 28 19 29 10 31
REMARK H PARENT 19 30 10 32
ROOT
ATOM      1  C   UNL     1      86.506  53.578  44.143  1.00  0.00     0.042 A 
ATOM      2  C   UNL     1      86.601  52.383  44.877  1.00  0.00     0.142 A 
ATOM      3  O   UNL     1      86.901  51.236  44.182  1.00  0.00    -0.484 OA
ATOM      4  C   UNL     1      86.396  50.050  44.811  1.00  0.00     0.211 C 
ATOM      5  C   UNL     1      86.988  49.904  46.202  1.00  0.00     0.131 C 
ATOM      6  C   UNL     1      86.597  51.115  46.999  1.00  0.00     0.174 C 
ATOM      7  O   UNL     1      86.461  51.089  48.220  1.00  0.00    -0.294 OA
ATOM      8  C   UNL     1      86.427  52.388  46.265  1.00  0.00     0.103 A 
ATOM      9  C   UNL     1      86.124  53.580  46.934  1.00  0.00     0.141 A 
ATOM     10  C   UNL     1      85.994  54.778  46.217  1.00  0.00     0.060 A 
ATOM     11  C   UNL     1      86.182  54.769  44.825  1.00  0.00     0.138 A 
ATOM     12  O   UNL     1      86.087  55.901  44.058  1.00  0.00    -0.483 OA
ATOM     13  C   UNL     1      85.545  57.107  44.633  1.00  0.00     0.122 C 
ATOM     14  C   UNL     1      84.144  57.296  44.040  1.00  0.00     0.061 C 
ATOM     15  C   UNL     1      86.462  58.243  44.162  1.00  0.00     0.061 C 
ATOM     16  C   UNL     1      85.468  57.121  46.137  1.00  0.00     0.021 C 
ATOM     17  C   UNL     1      85.683  56.036  46.885  1.00  0.00     0.015 C 
ENDROOT
BRANCH   1  18
ATOM     18  C   UNL     1      86.684  53.570  42.635  1.00  0.00     0.070 C 
BRANCH  18  19
ATOM     19  C   UNL     1      88.118  53.335  42.238  1.00  0.00    -0.023 C 
ATOM     20  C   UNL     1      88.614  52.417  41.384  1.00  0.00    -0.080 C 
ATOM     21  C   UNL     1      87.801  51.411  40.616  1.00  0.00     0.039 C 
ATOM     22  C   UNL     1      90.096  52.337  41.124  1.00  0.00     0.039 C 
ENDBRANCH  18  19
ENDBRANCH   1  18
BRANCH   4  23
ATOM     23  C   UNL     1      86.745  48.854  43.946  1.00  0.00    -0.007 A 
ATOM     24  C   UNL     1      85.905  47.728  43.929  1.00  0.00     0.011 A 
ATOM     25  C   UNL     1      87.915  48.833  43.168  1.00  0.00     0.011 A 
ATOM     26  C   UNL     1      86.219  46.614  43.147  1.00  0.00     0.046 A 
ATOM     27  C   UNL     1      88.229  47.720  42.387  1.00  0.00     0.046 A 
ATOM     28  C   UNL     1      87.381  46.621  42.382  1.00  0.00     0.115 A 
BRANCH  28  29
ATOM     29  O   UNL     1      87.726  45.556  41.605  1.00  0.00    -0.508 OA
ATOM     30  H   UNL     1      86.985  44.929  41.589  1.00  0.00     0.293 HD
ENDBRANCH  28  29
ENDBRANCH   4  23
BRANCH   9  31
ATOM     31  O   UNL     1      85.948  53.614  48.299  1.00  0.00    -0.506 OA
ATOM     32  H   UNL     1      86.116  52.714  48.660  1.00  0.00     0.293 HD
ENDBRANCH   9  31
TORSDOF 5
ENDMDL
MODEL 8
REMARK VINA RESULT:    -9.191      1.582      7.088
REMARK INTER + INTRA:         -12.278
REMARK INTER:                 -11.228
REMARK INTRA:                  -1.050
REMARK UNBOUND:                -0.938
REMARK SMILES CC(C)=CCc1c2c(c(O)c3c1OC(c1ccc(O)cc1)CC3=O)C=CC(C)(C)O2
REMARK SMILES IDX 6 1 12 2 13 3 14 4 22 5 23 6 24 7 11 8 9 9 8 10 7 11 30 12
REMARK SMILES IDX 27 13 28 14 29 15 26 16 25 17 5 18 4 19 2 20 1 21 3 22 15 23
REMARK SMILES IDX 16 24 21 25 17 26 20 27 18 28 19 29 10 31
REMARK H PARENT 19 30 10 32
ROOT
ATOM      1  C   UNL     1      85.804  51.756  43.854  1.00  0.00     0.042 A 
ATOM      2  C   UNL     1      86.673  51.038  43.015  1.00  0.00     0.142 A 
ATOM      3  O   UNL     1      86.471  49.683  42.907  1.00  0.00    -0.484 OA
ATOM      4  C   UNL     1      87.667  48.961  42.581  1.00  0.00     0.211 C 
ATOM      5  C   UNL     1      88.223  49.443  41.253  1.00  0.00     0.131 C 
ATOM      6  C   UNL     1      88.526  50.908  41.384  1.00  0.00     0.174 C 
ATOM      7  O   UNL     1      89.409  51.462  40.734  1.00  0.00    -0.294 OA
ATOM      8  C   UNL     1      87.677  51.700  42.300  1.00  0.00     0.103 A 
ATOM      9  C   UNL     1      87.847  53.083  42.439  1.00  0.00     0.141 A 
ATOM     10  C   UNL     1      87.011  53.814  43.295  1.00  0.00     0.060 A 
ATOM     11  C   UNL     1      85.997  53.145  44.000  1.00  0.00     0.138 A 
ATOM     12  O   UNL     1      85.131  53.793  44.842  1.00  0.00    -0.483 OA
ATOM     13  C   UNL     1      85.393  55.159  45.221  1.00  0.00     0.122 C 
ATOM     14  C   UNL     1      85.869  55.139  46.677  1.00  0.00     0.061 C 
ATOM     15  C   UNL     1      84.045  55.885  45.128  1.00  0.00     0.061 C 
ATOM     16  C   UNL     1      86.403  55.878  44.364  1.00  0.00     0.021 C 
ATOM     17  C   UNL     1      87.160  55.256  43.457  1.00  0.00     0.015 C 
ENDROOT
BRANCH   1  18
ATOM     18  C   UNL     1      84.722  51.036  44.638  1.00  0.00     0.070 C 
BRANCH  18  19
ATOM     19  C   UNL     1      83.394  51.070  43.928  1.00  0.00    -0.023 C 
ATOM     20  C   UNL     1      82.656  50.037  43.475  1.00  0.00    -0.080 C 
ATOM     21  C   UNL     1      83.019  48.583  43.603  1.00  0.00     0.039 C 
ATOM     22  C   UNL     1      81.343  50.283  42.777  1.00  0.00     0.039 C 
ENDBRANCH  18  19
ENDBRANCH   1  18
BRANCH   4  23
ATOM     23  C   UNL     1      87.343  47.480  42.527  1.00  0.00    -0.007 A 
ATOM     24  C   UNL     1      86.081  47.020  42.939  1.00  0.00     0.011 A 
ATOM     25  C   UNL     1      88.293  46.541  42.090  1.00  0.00     0.011 A 
ATOM     26  C   UNL     1      85.773  45.658  42.905  1.00  0.00     0.046 A 
ATOM     27  C   UNL     1      87.984  45.181  42.057  1.00  0.00     0.046 A 
ATOM     28  C   UNL     1      86.729  44.750  42.463  1.00  0.00     0.115 A 
BRANCH  28  29
ATOM     29  O   UNL     1      86.470  43.413  42.414  1.00  0.00    -0.508 OA
ATOM     30  H   UNL     1      85.766  43.255  41.764  1.00  0.00     0.293 HD
ENDBRANCH  28  29
ENDBRANCH   4  23
BRANCH   9  31
ATOM     31  O   UNL     1      88.826  53.760  41.747  1.00  0.00    -0.506 OA
ATOM     32  H   UNL     1      89.510  54.064  42.386  1.00  0.00     0.293 HD
ENDBRANCH   9  31
TORSDOF 5
ENDMDL
MODEL 9
REMARK VINA RESULT:    -9.040      1.326      2.222
REMARK INTER + INTRA:         -12.092
REMARK INTER:                 -11.153
REMARK INTRA:                  -0.938
REMARK UNBOUND:                -0.938
REMARK SMILES CC(C)=CCc1c2c(c(O)c3c1OC(c1ccc(O)cc1)CC3=O)C=CC(C)(C)O2
REMARK SMILES IDX 6 1 12 2 13 3 14 4 22 5 23 6 24 7 11 8 9 9 8 10 7 11 30 12
REMARK SMILES IDX 27 13 28 14 29 15 26 16 25 17 5 18 4 19 2 20 1 21 3 22 15 23
REMARK SMILES IDX 16 24 21 25 17 26 20 27 18 28 19 29 10 31
REMARK H PARENT 19 30 10 32
ROOT
ATOM      1  C   UNL     1      86.330  49.929  43.426  1.00  0.00     0.042 A 
ATOM      2  C   UNL     1      86.989  51.054  42.900  1.00  0.00     0.142 A 
ATOM      3  O   UNL     1      86.560  52.290  43.318  1.00  0.00    -0.484 OA
ATOM      4  C   UNL     1      86.804  53.325  42.354  1.00  0.00     0.211 C 
ATOM      5  C   UNL     1      88.291  53.434  42.070  1.00  0.00     0.131 C 
ATOM      6  C   UNL     1      88.756  52.111  41.532  1.00  0.00     0.174 C 
ATOM      7  O   UNL     1      89.706  52.007  40.760  1.00  0.00    -0.294 OA
ATOM      8  C   UNL     1      88.058  50.898  42.011  1.00  0.00     0.103 A 
ATOM      9  C   UNL     1      88.463  49.618  41.611  1.00  0.00     0.141 A 
ATOM     10  C   UNL     1      87.800  48.484  42.101  1.00  0.00     0.060 A 
ATOM     11  C   UNL     1      86.735  48.647  43.002  1.00  0.00     0.138 A 
ATOM     12  O   UNL     1      86.049  47.587  43.535  1.00  0.00    -0.483 OA
ATOM     13  C   UNL     1      86.245  46.265  42.992  1.00  0.00     0.122 C 
ATOM     14  C   UNL     1      84.987  45.919  42.188  1.00  0.00     0.061 C 
ATOM     15  C   UNL     1      86.359  45.329  44.201  1.00  0.00     0.061 C 
ATOM     16  C   UNL     1      87.465  46.105  42.123  1.00  0.00     0.021 C 
ATOM     17  C   UNL     1      88.201  47.138  41.707  1.00  0.00     0.015 C 
ENDROOT
BRANCH   1  18
ATOM     18  C   UNL     1      85.163  50.098  44.381  1.00  0.00     0.070 C 
BRANCH  18  19
ATOM     19  C   UNL     1      85.619  50.467  45.769  1.00  0.00    -0.023 C 
ATOM     20  C   UNL     1      85.450  51.631  46.428  1.00  0.00    -0.080 C 
ATOM     21  C   UNL     1      84.734  52.840  45.893  1.00  0.00     0.039 C 
ATOM     22  C   UNL     1      85.994  51.806  47.823  1.00  0.00     0.039 C 
ENDBRANCH  18  19
ENDBRANCH   1  18
BRANCH   4  23
ATOM     23  C   UNL     1      86.259  54.633  42.896  1.00  0.00    -0.007 A 
ATOM     24  C   UNL     1      85.051  55.152  42.401  1.00  0.00     0.011 A 
ATOM     25  C   UNL     1      86.953  55.361  43.878  1.00  0.00     0.011 A 
ATOM     26  C   UNL     1      84.544  56.361  42.881  1.00  0.00     0.046 A 
ATOM     27  C   UNL     1      86.445  56.569  44.357  1.00  0.00     0.046 A 
ATOM     28  C   UNL     1      85.247  57.060  43.857  1.00  0.00     0.115 A 
BRANCH  28  29
ATOM     29  O   UNL     1      84.788  58.243  44.354  1.00  0.00    -0.508 OA
ATOM     30  H   UNL     1      83.838  58.156  44.538  1.00  0.00     0.293 HD
ENDBRANCH  28  29
ENDBRANCH   4  23
BRANCH   9  31
ATOM     31  O   UNL     1      89.512  49.437  40.739  1.00  0.00    -0.506 OA
ATOM     32  H   UNL     1      89.885  50.317  40.506  1.00  0.00     0.293 HD
ENDBRANCH   9  31
TORSDOF 5
ENDMDL
