MODEL 1
REMARK VINA RESULT:    -5.383      0.000      0.000
REMARK INTER + INTRA:          -7.124
REMARK INTER:                  -7.059
REMARK INTRA:                  -0.064
REMARK UNBOUND:                -0.639
REMARK SMILES CC(=O)O[C@H]1CC[C@@]2(C)C(CC[C@@]3(C)C4=CCC5(C(=O)O)CCC(C)(C)CC5[C@]4(C)CCC23)C1(C)C
REMARK SMILES IDX 5 1 6 2 7 3 8 4 10 5 34 6 35 7 36 8 11 9 12 10 13 11 33 12
REMARK SMILES IDX 32 13 31 14 29 15 15 16 16 17 17 18 18 19 28 20 27 21 24 22
REMARK SMILES IDX 25 23 26 24 23 25 22 26 30 27 14 28 9 29 4 30 2 31 3 32 1 33
REMARK SMILES IDX 19 34 20 35 21 36
REMARK H PARENT 21 37
ROOT
ATOM      1  C   UNL     1      85.585  56.387  43.723  1.00  0.00     0.182 C 
ATOM      2  C   UNL     1      86.888  55.610  43.935  1.00  0.00     0.046 C 
ATOM      3  C   UNL     1      86.663  54.374  44.801  1.00  0.00     0.011 C 
ATOM      4  C   UNL     1      85.489  53.455  44.303  1.00  0.00    -0.025 C 
ATOM      5  C   UNL     1      84.866  54.003  42.974  1.00  0.00     0.005 C 
ATOM      6  C   UNL     1      84.511  55.542  42.954  1.00  0.00     0.005 C 
ATOM      7  C   UNL     1      84.556  56.016  41.471  1.00  0.00     0.015 C 
ATOM      8  C   UNL     1      83.082  55.843  43.453  1.00  0.00     0.015 C 
ATOM      9  C   UNL     1      83.728  53.084  42.476  1.00  0.00     0.006 C 
ATOM     10  C   UNL     1      84.204  51.655  42.211  1.00  0.00     0.012 C 
ATOM     11  C   UNL     1      84.944  50.958  43.384  1.00  0.00    -0.008 C 
ATOM     12  C   UNL     1      86.005  51.955  44.028  1.00  0.00     0.005 C 
ATOM     13  C   UNL     1      87.290  51.935  43.166  1.00  0.00     0.006 C 
ATOM     14  C   UNL     1      87.901  50.544  43.192  1.00  0.00     0.012 C 
ATOM     15  C   UNL     1      87.048  49.498  42.449  1.00  0.00    -0.007 C 
ATOM     16  C   UNL     1      85.557  49.623  42.813  1.00  0.00    -0.062 C 
ATOM     17  C   UNL     1      84.773  48.570  42.488  1.00  0.00    -0.025 C 
ATOM     18  C   UNL     1      85.323  47.257  42.021  1.00  0.00     0.046 C 
ATOM     19  C   UNL     1      86.591  46.882  42.806  1.00  0.00     0.075 C 
ATOM     20  C   UNL     1      87.637  48.059  42.817  1.00  0.00     0.017 C 
ATOM     21  C   UNL     1      88.908  47.698  42.008  1.00  0.00     0.012 C 
ATOM     22  C   UNL     1      89.602  46.394  42.475  1.00  0.00    -0.035 C 
ATOM     23  C   UNL     1      90.550  45.925  41.354  1.00  0.00     0.011 C 
ATOM     24  C   UNL     1      90.455  46.662  43.730  1.00  0.00     0.011 C 
ATOM     25  C   UNL     1      88.575  45.281  42.783  1.00  0.00     0.007 C 
ATOM     26  C   UNL     1      87.194  45.585  42.206  1.00  0.00     0.020 C 
ATOM     27  C   UNL     1      87.184  49.782  40.923  1.00  0.00     0.016 C 
ATOM     28  C   UNL     1      83.918  50.545  44.480  1.00  0.00     0.016 C 
ATOM     29  C   UNL     1      84.467  53.483  45.474  1.00  0.00     0.012 C 
ENDROOT
BRANCH   1  30
ATOM     30  O   UNL     1      85.113  56.774  45.034  1.00  0.00    -0.462 OA
BRANCH  30  31
ATOM     31  C   UNL     1      85.124  58.099  45.339  1.00  0.00     0.302 C 
ATOM     32  O   UNL     1      85.747  58.969  44.748  1.00  0.00    -0.253 OA
ATOM     33  C   UNL     1      84.238  58.351  46.520  1.00  0.00     0.139 C 
ENDBRANCH  30  31
ENDBRANCH   1  30
BRANCH  19  34
ATOM     34  C   UNL     1      86.160  46.562  44.254  1.00  0.00     0.310 C 
ATOM     35  O   UNL     1      85.812  45.484  44.710  1.00  0.00    -0.252 OA
BRANCH  34  36
ATOM     36  O   UNL     1      86.153  47.640  45.068  1.00  0.00    -0.481 OA
ATOM     37  H   UNL     1      86.420  48.373  44.474  1.00  0.00     0.296 HD
ENDBRANCH  34  36
ENDBRANCH  19  34
TORSDOF 4
ENDMDL
MODEL 2
REMARK VINA RESULT:    -5.322      1.897      3.688
REMARK INTER + INTRA:          -7.050
REMARK INTER:                  -7.252
REMARK INTRA:                   0.202
REMARK UNBOUND:                -0.639
REMARK SMILES CC(=O)O[C@H]1CC[C@@]2(C)C(CC[C@@]3(C)C4=CCC5(C(=O)O)CCC(C)(C)CC5[C@]4(C)CCC23)C1(C)C
REMARK SMILES IDX 5 1 6 2 7 3 8 4 10 5 34 6 35 7 36 8 11 9 12 10 13 11 33 12
REMARK SMILES IDX 32 13 31 14 29 15 15 16 16 17 17 18 18 19 28 20 27 21 24 22
REMARK SMILES IDX 25 23 26 24 23 25 22 26 30 27 14 28 9 29 4 30 2 31 3 32 1 33
REMARK SMILES IDX 19 34 20 35 21 36
REMARK H PARENT 21 37
ROOT
ATOM      1  C   UNL     1      84.456  55.972  45.867  1.00  0.00     0.182 C 
ATOM      2  C   UNL     1      83.566  54.834  45.355  1.00  0.00     0.046 C 
ATOM      3  C   UNL     1      84.116  54.239  44.061  1.00  0.00     0.011 C 
ATOM      4  C   UNL     1      85.630  53.828  44.144  1.00  0.00    -0.025 C 
ATOM      5  C   UNL     1      86.205  54.068  45.582  1.00  0.00     0.005 C 
ATOM      6  C   UNL     1      85.899  55.478  46.227  1.00  0.00     0.005 C 
ATOM      7  C   UNL     1      85.932  55.305  47.775  1.00  0.00     0.015 C 
ATOM      8  C   UNL     1      86.968  56.541  45.896  1.00  0.00     0.015 C 
ATOM      9  C   UNL     1      87.687  53.641  45.665  1.00  0.00     0.006 C 
ATOM     10  C   UNL     1      87.889  52.164  45.326  1.00  0.00     0.012 C 
ATOM     11  C   UNL     1      87.300  51.693  43.969  1.00  0.00    -0.008 C 
ATOM     12  C   UNL     1      85.828  52.272  43.785  1.00  0.00     0.005 C 
ATOM     13  C   UNL     1      84.840  51.368  44.562  1.00  0.00     0.006 C 
ATOM     14  C   UNL     1      84.854  49.969  43.971  1.00  0.00     0.012 C 
ATOM     15  C   UNL     1      86.177  49.221  44.226  1.00  0.00    -0.007 C 
ATOM     16  C   UNL     1      87.397  50.120  43.947  1.00  0.00    -0.062 C 
ATOM     17  C   UNL     1      88.586  49.488  43.817  1.00  0.00    -0.025 C 
ATOM     18  C   UNL     1      88.711  48.000  43.709  1.00  0.00     0.046 C 
ATOM     19  C   UNL     1      87.587  47.415  42.837  1.00  0.00     0.075 C 
ATOM     20  C   UNL     1      86.169  47.917  43.303  1.00  0.00     0.017 C 
ATOM     21  C   UNL     1      85.323  46.761  43.894  1.00  0.00     0.012 C 
ATOM     22  C   UNL     1      85.148  45.556  42.936  1.00  0.00    -0.035 C 
ATOM     23  C   UNL     1      84.691  44.342  43.768  1.00  0.00     0.011 C 
ATOM     24  C   UNL     1      84.050  45.854  41.897  1.00  0.00     0.011 C 
ATOM     25  C   UNL     1      86.466  45.215  42.203  1.00  0.00     0.007 C 
ATOM     26  C   UNL     1      87.682  45.868  42.856  1.00  0.00     0.020 C 
ATOM     27  C   UNL     1      86.214  48.836  45.736  1.00  0.00     0.016 C 
ATOM     28  C   UNL     1      88.191  52.211  42.802  1.00  0.00     0.016 C 
ATOM     29  C   UNL     1      86.325  54.733  43.088  1.00  0.00     0.012 C 
ENDROOT
BRANCH   1  30
ATOM     30  O   UNL     1      84.486  56.977  44.827  1.00  0.00    -0.462 OA
BRANCH  30  31
ATOM     31  C   UNL     1      84.791  58.250  45.194  1.00  0.00     0.302 C 
ATOM     32  O   UNL     1      85.554  59.005  44.610  1.00  0.00    -0.253 OA
ATOM     33  C   UNL     1      84.037  58.610  46.438  1.00  0.00     0.139 C 
ENDBRANCH  30  31
ENDBRANCH   1  30
BRANCH  19  34
ATOM     34  C   UNL     1      87.843  47.873  41.385  1.00  0.00     0.310 C 
ATOM     35  O   UNL     1      87.217  48.698  40.739  1.00  0.00    -0.252 OA
BRANCH  34  36
ATOM     36  O   UNL     1      88.873  47.233  40.789  1.00  0.00    -0.481 OA
ATOM     37  H   UNL     1      89.662  47.663  41.179  1.00  0.00     0.296 HD
ENDBRANCH  34  36
ENDBRANCH  19  34
TORSDOF 4
ENDMDL
MODEL 3
REMARK VINA RESULT:    -5.063      1.671      2.189
REMARK INTER + INTRA:          -6.739
REMARK INTER:                  -7.008
REMARK INTRA:                   0.270
REMARK UNBOUND:                -0.639
REMARK SMILES CC(=O)O[C@H]1CC[C@@]2(C)C(CC[C@@]3(C)C4=CCC5(C(=O)O)CCC(C)(C)CC5[C@]4(C)CCC23)C1(C)C
REMARK SMILES IDX 5 1 6 2 7 3 8 4 10 5 34 6 35 7 36 8 11 9 12 10 13 11 33 12
REMARK SMILES IDX 32 13 31 14 29 15 15 16 16 17 17 18 18 19 28 20 27 21 24 22
REMARK SMILES IDX 25 23 26 24 23 25 22 26 30 27 14 28 9 29 4 30 2 31 3 32 1 33
REMARK SMILES IDX 19 34 20 35 21 36
REMARK H PARENT 21 37
ROOT
ATOM      1  C   UNL     1      86.545  54.810  45.359  1.00  0.00     0.182 C 
ATOM      2  C   UNL     1      87.413  53.608  45.746  1.00  0.00     0.046 C 
ATOM      3  C   UNL     1      86.561  52.445  46.246  1.00  0.00     0.011 C 
ATOM      4  C   UNL     1      85.390  52.052  45.273  1.00  0.00    -0.025 C 
ATOM      5  C   UNL     1      85.422  52.920  43.969  1.00  0.00     0.005 C 
ATOM      6  C   UNL     1      85.573  54.479  44.174  1.00  0.00     0.005 C 
ATOM      7  C   UNL     1      86.233  55.061  42.888  1.00  0.00     0.015 C 
ATOM      8  C   UNL     1      84.220  55.207  44.323  1.00  0.00     0.015 C 
ATOM      9  C   UNL     1      84.284  52.515  43.006  1.00  0.00     0.006 C 
ATOM     10  C   UNL     1      84.366  51.046  42.589  1.00  0.00     0.012 C 
ATOM     11  C   UNL     1      84.444  50.015  43.747  1.00  0.00    -0.008 C 
ATOM     12  C   UNL     1      85.490  50.505  44.843  1.00  0.00     0.005 C 
ATOM     13  C   UNL     1      86.915  50.127  44.370  1.00  0.00     0.006 C 
ATOM     14  C   UNL     1      87.037  48.616  44.271  1.00  0.00     0.012 C 
ATOM     15  C   UNL     1      86.194  48.018  43.127  1.00  0.00    -0.007 C 
ATOM     16  C   UNL     1      84.776  48.619  43.097  1.00  0.00    -0.062 C 
ATOM     17  C   UNL     1      83.859  47.946  42.364  1.00  0.00    -0.025 C 
ATOM     18  C   UNL     1      84.108  46.581  41.800  1.00  0.00     0.046 C 
ATOM     19  C   UNL     1      84.882  45.706  42.801  1.00  0.00     0.075 C 
ATOM     20  C   UNL     1      86.171  46.434  43.334  1.00  0.00     0.017 C 
ATOM     21  C   UNL     1      87.464  45.739  42.837  1.00  0.00     0.012 C 
ATOM     22  C   UNL     1      87.544  44.233  43.193  1.00  0.00    -0.035 C 
ATOM     23  C   UNL     1      88.615  43.583  42.294  1.00  0.00     0.011 C 
ATOM     24  C   UNL     1      87.988  44.052  44.657  1.00  0.00     0.011 C 
ATOM     25  C   UNL     1      86.188  43.524  42.978  1.00  0.00     0.007 C 
ATOM     26  C   UNL     1      85.225  44.351  42.129  1.00  0.00     0.020 C 
ATOM     27  C   UNL     1      86.892  48.396  41.786  1.00  0.00     0.016 C 
ATOM     28  C   UNL     1      83.046  49.874  44.418  1.00  0.00     0.016 C 
ATOM     29  C   UNL     1      84.105  52.313  46.108  1.00  0.00     0.012 C 
ENDROOT
BRANCH   1  30
ATOM     30  O   UNL     1      85.817  55.198  46.546  1.00  0.00    -0.462 OA
BRANCH  30  31
ATOM     31  C   UNL     1      85.347  56.472  46.606  1.00  0.00     0.302 C 
ATOM     32  O   UNL     1      85.903  57.467  46.166  1.00  0.00    -0.253 OA
ATOM     33  C   UNL     1      84.015  56.485  47.293  1.00  0.00     0.139 C 
ENDBRANCH  30  31
ENDBRANCH   1  30
BRANCH  19  34
ATOM     34  C   UNL     1      83.934  45.406  43.982  1.00  0.00     0.310 C 
ATOM     35  O   UNL     1      82.741  45.150  43.938  1.00  0.00    -0.252 OA
BRANCH  34  36
ATOM     36  O   UNL     1      84.534  45.478  45.190  1.00  0.00    -0.481 OA
ATOM     37  H   UNL     1      83.821  45.807  45.777  1.00  0.00     0.296 HD
ENDBRANCH  34  36
ENDBRANCH  19  34
TORSDOF 4
ENDMDL
MODEL 4
REMARK VINA RESULT:    -4.851      2.337      4.160
REMARK INTER + INTRA:          -6.484
REMARK INTER:                  -6.776
REMARK INTRA:                   0.292
REMARK UNBOUND:                -0.639
REMARK SMILES CC(=O)O[C@H]1CC[C@@]2(C)C(CC[C@@]3(C)C4=CCC5(C(=O)O)CCC(C)(C)CC5[C@]4(C)CCC23)C1(C)C
REMARK SMILES IDX 5 1 6 2 7 3 8 4 10 5 34 6 35 7 36 8 11 9 12 10 13 11 33 12
REMARK SMILES IDX 32 13 31 14 29 15 15 16 16 17 17 18 18 19 28 20 27 21 24 22
REMARK SMILES IDX 25 23 26 24 23 25 22 26 30 27 14 28 9 29 4 30 2 31 3 32 1 33
REMARK SMILES IDX 19 34 20 35 21 36
REMARK H PARENT 21 37
ROOT
ATOM      1  C   UNL     1      83.471  54.676  42.590  1.00  0.00     0.182 C 
ATOM      2  C   UNL     1      83.031  53.247  42.253  1.00  0.00     0.046 C 
ATOM      3  C   UNL     1      84.034  52.560  41.330  1.00  0.00     0.011 C 
ATOM      4  C   UNL     1      85.518  52.627  41.844  1.00  0.00    -0.025 C 
ATOM      5  C   UNL     1      85.604  53.337  43.239  1.00  0.00     0.005 C 
ATOM      6  C   UNL     1      84.830  54.708  43.371  1.00  0.00     0.005 C 
ATOM      7  C   UNL     1      84.469  54.901  44.874  1.00  0.00     0.015 C 
ATOM      8  C   UNL     1      85.687  55.929  42.979  1.00  0.00     0.015 C 
ATOM      9  C   UNL     1      87.061  53.379  43.750  1.00  0.00     0.006 C 
ATOM     10  C   UNL     1      87.669  51.985  43.900  1.00  0.00     0.012 C 
ATOM     11  C   UNL     1      87.597  51.074  42.645  1.00  0.00    -0.008 C 
ATOM     12  C   UNL     1      86.145  51.153  41.998  1.00  0.00     0.005 C 
ATOM     13  C   UNL     1      85.203  50.203  42.778  1.00  0.00     0.006 C 
ATOM     14  C   UNL     1      85.687  48.771  42.632  1.00  0.00     0.012 C 
ATOM     15  C   UNL     1      87.019  48.508  43.363  1.00  0.00    -0.007 C 
ATOM     16  C   UNL     1      88.039  49.631  43.098  1.00  0.00    -0.062 C 
ATOM     17  C   UNL     1      89.326  49.352  43.408  1.00  0.00    -0.025 C 
ATOM     18  C   UNL     1      89.801  47.976  43.762  1.00  0.00     0.046 C 
ATOM     19  C   UNL     1      89.119  46.916  42.880  1.00  0.00     0.075 C 
ATOM     20  C   UNL     1      87.554  47.084  42.875  1.00  0.00     0.017 C 
ATOM     21  C   UNL     1      86.853  45.897  43.583  1.00  0.00     0.012 C 
ATOM     22  C   UNL     1      87.219  44.510  42.997  1.00  0.00    -0.035 C 
ATOM     23  C   UNL     1      86.828  43.434  44.030  1.00  0.00     0.011 C 
ATOM     24  C   UNL     1      86.415  44.242  41.711  1.00  0.00     0.011 C 
ATOM     25  C   UNL     1      88.730  44.404  42.687  1.00  0.00     0.007 C 
ATOM     26  C   UNL     1      89.543  45.505  43.364  1.00  0.00     0.020 C 
ATOM     27  C   UNL     1      86.719  48.497  44.892  1.00  0.00     0.016 C 
ATOM     28  C   UNL     1      88.640  51.550  41.592  1.00  0.00     0.016 C 
ATOM     29  C   UNL     1      86.262  53.432  40.742  1.00  0.00     0.012 C 
ENDROOT
BRANCH   1  30
ATOM     30  O   UNL     1      83.566  55.389  41.335  1.00  0.00    -0.462 OA
BRANCH  30  31
ATOM     31  C   UNL     1      82.682  55.058  40.357  1.00  0.00     0.302 C 
ATOM     32  O   UNL     1      81.520  54.717  40.521  1.00  0.00    -0.253 OA
ATOM     33  C   UNL     1      83.343  55.183  39.018  1.00  0.00     0.139 C 
ENDBRANCH  30  31
ENDBRANCH   1  30
BRANCH  19  34
ATOM     34  C   UNL     1      89.661  47.091  41.445  1.00  0.00     0.310 C 
ATOM     35  O   UNL     1      90.823  47.048  41.073  1.00  0.00    -0.252 OA
BRANCH  34  36
ATOM     36  O   UNL     1      88.700  47.353  40.531  1.00  0.00    -0.481 OA
ATOM     37  H   UNL     1      89.209  47.658  39.750  1.00  0.00     0.296 HD
ENDBRANCH  34  36
ENDBRANCH  19  34
TORSDOF 4
ENDMDL
MODEL 5
REMARK VINA RESULT:    -4.576      1.937      9.001
REMARK INTER + INTRA:          -6.152
REMARK INTER:                  -5.875
REMARK INTRA:                  -0.277
REMARK UNBOUND:                -0.639
REMARK SMILES CC(=O)O[C@H]1CC[C@@]2(C)C(CC[C@@]3(C)C4=CCC5(C(=O)O)CCC(C)(C)CC5[C@]4(C)CCC23)C1(C)C
REMARK SMILES IDX 5 1 6 2 7 3 8 4 10 5 34 6 35 7 36 8 11 9 12 10 13 11 33 12
REMARK SMILES IDX 32 13 31 14 29 15 15 16 16 17 17 18 18 19 28 20 27 21 24 22
REMARK SMILES IDX 25 23 26 24 23 25 22 26 30 27 14 28 9 29 4 30 2 31 3 32 1 33
REMARK SMILES IDX 19 34 20 35 21 36
REMARK H PARENT 21 37
ROOT
ATOM      1  C   UNL     1      88.945  45.831  42.073  1.00  0.00     0.182 C 
ATOM      2  C   UNL     1      87.534  46.248  41.643  1.00  0.00     0.046 C 
ATOM      3  C   UNL     1      86.847  47.077  42.725  1.00  0.00     0.011 C 
ATOM      4  C   UNL     1      87.704  48.292  43.234  1.00  0.00    -0.025 C 
ATOM      5  C   UNL     1      89.054  48.402  42.447  1.00  0.00     0.005 C 
ATOM      6  C   UNL     1      89.884  47.066  42.297  1.00  0.00     0.005 C 
ATOM      7  C   UNL     1      90.756  47.195  41.013  1.00  0.00     0.015 C 
ATOM      8  C   UNL     1      90.872  46.831  43.460  1.00  0.00     0.015 C 
ATOM      9  C   UNL     1      89.883  49.611  42.935  1.00  0.00     0.006 C 
ATOM     10  C   UNL     1      89.138  50.936  42.768  1.00  0.00     0.012 C 
ATOM     11  C   UNL     1      87.722  51.003  43.398  1.00  0.00    -0.008 C 
ATOM     12  C   UNL     1      86.908  49.679  43.051  1.00  0.00     0.005 C 
ATOM     13  C   UNL     1      86.314  49.822  41.629  1.00  0.00     0.006 C 
ATOM     14  C   UNL     1      85.330  50.979  41.599  1.00  0.00     0.012 C 
ATOM     15  C   UNL     1      86.012  52.352  41.758  1.00  0.00    -0.007 C 
ATOM     16  C   UNL     1      87.055  52.337  42.892  1.00  0.00    -0.062 C 
ATOM     17  C   UNL     1      87.470  53.546  43.335  1.00  0.00    -0.025 C 
ATOM     18  C   UNL     1      86.809  54.831  42.942  1.00  0.00     0.046 C 
ATOM     19  C   UNL     1      85.280  54.668  42.888  1.00  0.00     0.075 C 
ATOM     20  C   UNL     1      84.858  53.426  42.018  1.00  0.00     0.017 C 
ATOM     21  C   UNL     1      84.130  53.860  40.721  1.00  0.00     0.012 C 
ATOM     22  C   UNL     1      82.890  54.757  40.966  1.00  0.00    -0.035 C 
ATOM     23  C   UNL     1      82.536  55.461  39.641  1.00  0.00     0.011 C 
ATOM     24  C   UNL     1      81.680  53.896  41.379  1.00  0.00     0.011 C 
ATOM     25  C   UNL     1      83.160  55.816  42.059  1.00  0.00     0.007 C 
ATOM     26  C   UNL     1      84.649  55.981  42.356  1.00  0.00     0.020 C 
ATOM     27  C   UNL     1      86.767  52.656  40.429  1.00  0.00     0.016 C 
ATOM     28  C   UNL     1      87.842  51.124  44.946  1.00  0.00     0.016 C 
ATOM     29  C   UNL     1      87.938  47.982  44.739  1.00  0.00     0.012 C 
ENDROOT
BRANCH   1  30
ATOM     30  O   UNL     1      88.798  45.052  43.283  1.00  0.00    -0.462 OA
BRANCH  30  31
ATOM     31  C   UNL     1      88.280  43.802  43.165  1.00  0.00     0.302 C 
ATOM     32  O   UNL     1      87.527  43.413  42.284  1.00  0.00    -0.253 OA
ATOM     33  C   UNL     1      88.778  42.942  44.287  1.00  0.00     0.139 C 
ENDBRANCH  30  31
ENDBRANCH   1  30
BRANCH  19  34
ATOM     34  C   UNL     1      84.784  54.475  44.338  1.00  0.00     0.310 C 
ATOM     35  O   UNL     1      84.901  55.245  45.278  1.00  0.00    -0.252 OA
BRANCH  34  36
ATOM     36  O   UNL     1      84.185  53.283  44.550  1.00  0.00    -0.481 OA
ATOM     37  H   UNL     1      83.455  53.277  43.896  1.00  0.00     0.296 HD
ENDBRANCH  34  36
ENDBRANCH  19  34
TORSDOF 4
ENDMDL
MODEL 6
REMARK VINA RESULT:    -2.395      2.108      8.841
REMARK INTER + INTRA:          -3.525
REMARK INTER:                  -3.649
REMARK INTRA:                   0.125
REMARK UNBOUND:                -0.639
REMARK SMILES CC(=O)O[C@H]1CC[C@@]2(C)C(CC[C@@]3(C)C4=CCC5(C(=O)O)CCC(C)(C)CC5[C@]4(C)CCC23)C1(C)C
REMARK SMILES IDX 5 1 6 2 7 3 8 4 10 5 34 6 35 7 36 8 11 9 12 10 13 11 33 12
REMARK SMILES IDX 32 13 31 14 29 15 15 16 16 17 17 18 18 19 28 20 27 21 24 22
REMARK SMILES IDX 25 23 26 24 23 25 22 26 30 27 14 28 9 29 4 30 2 31 3 32 1 33
REMARK SMILES IDX 19 34 20 35 21 36
REMARK H PARENT 21 37
ROOT
ATOM      1  C   UNL     1      89.288  47.536  42.661  1.00  0.00     0.182 C 
ATOM      2  C   UNL     1      89.014  48.164  44.032  1.00  0.00     0.046 C 
ATOM      3  C   UNL     1      89.402  49.640  44.055  1.00  0.00     0.011 C 
ATOM      4  C   UNL     1      88.785  50.477  42.876  1.00  0.00    -0.025 C 
ATOM      5  C   UNL     1      87.848  49.593  41.984  1.00  0.00     0.005 C 
ATOM      6  C   UNL     1      88.434  48.199  41.526  1.00  0.00     0.005 C 
ATOM      7  C   UNL     1      87.230  47.245  41.266  1.00  0.00     0.015 C 
ATOM      8  C   UNL     1      89.211  48.275  40.194  1.00  0.00     0.015 C 
ATOM      9  C   UNL     1      87.226  50.426  40.841  1.00  0.00     0.006 C 
ATOM     10  C   UNL     1      86.400  51.603  41.358  1.00  0.00     0.012 C 
ATOM     11  C   UNL     1      87.123  52.557  42.346  1.00  0.00    -0.008 C 
ATOM     12  C   UNL     1      87.919  51.712  43.435  1.00  0.00     0.005 C 
ATOM     13  C   UNL     1      86.928  51.270  44.540  1.00  0.00     0.006 C 
ATOM     14  C   UNL     1      86.364  52.495  45.240  1.00  0.00     0.012 C 
ATOM     15  C   UNL     1      85.428  53.325  44.339  1.00  0.00    -0.007 C 
ATOM     16  C   UNL     1      86.028  53.526  42.935  1.00  0.00    -0.062 C 
ATOM     17  C   UNL     1      85.465  54.497  42.179  1.00  0.00    -0.025 C 
ATOM     18  C   UNL     1      84.483  55.488  42.724  1.00  0.00     0.046 C 
ATOM     19  C   UNL     1      84.887  55.941  44.137  1.00  0.00     0.075 C 
ATOM     20  C   UNL     1      85.166  54.715  45.084  1.00  0.00     0.017 C 
ATOM     21  C   UNL     1      84.104  54.610  46.207  1.00  0.00     0.012 C 
ATOM     22  C   UNL     1      83.965  55.894  47.063  1.00  0.00    -0.035 C 
ATOM     23  C   UNL     1      82.624  55.824  47.821  1.00  0.00     0.011 C 
ATOM     24  C   UNL     1      85.093  55.963  48.111  1.00  0.00     0.011 C 
ATOM     25  C   UNL     1      84.001  57.168  46.189  1.00  0.00     0.007 C 
ATOM     26  C   UNL     1      83.780  56.866  44.708  1.00  0.00     0.020 C 
ATOM     27  C   UNL     1      84.103  52.522  44.174  1.00  0.00     0.016 C 
ATOM     28  C   UNL     1      88.135  53.449  41.568  1.00  0.00     0.016 C 
ATOM     29  C   UNL     1      90.024  50.982  42.085  1.00  0.00     0.012 C 
ENDROOT
BRANCH   1  30
ATOM     30  O   UNL     1      90.705  47.685  42.411  1.00  0.00    -0.462 OA
BRANCH  30  31
ATOM     31  C   UNL     1      91.556  47.387  43.428  1.00  0.00     0.302 C 
ATOM     32  O   UNL     1      91.655  46.307  43.992  1.00  0.00    -0.253 OA
ATOM     33  C   UNL     1      92.381  48.591  43.763  1.00  0.00     0.139 C 
ENDBRANCH  30  31
ENDBRANCH   1  30
BRANCH  19  34
ATOM     34  C   UNL     1      86.170  56.790  44.002  1.00  0.00     0.310 C 
ATOM     35  O   UNL     1      87.313  56.468  44.281  1.00  0.00    -0.252 OA
BRANCH  34  36
ATOM     36  O   UNL     1      85.945  58.042  43.546  1.00  0.00    -0.481 OA
ATOM     37  H   UNL     1      86.584  58.585  44.054  1.00  0.00     0.296 HD
ENDBRANCH  34  36
ENDBRANCH  19  34
TORSDOF 4
ENDMDL
