MODEL 1
REMARK VINA RESULT:    -9.880      0.000      0.000
REMARK INTER + INTRA:         -11.089
REMARK INTER:                 -10.721
REMARK INTRA:                  -0.368
REMARK UNBOUND:                -0.342
REMARK SMILES CC1(C)C=Cc2c(cc(O)c3c2OC(c2ccccc2)CC3=O)O1
REMARK SMILES IDX 23 1 22 2 21 3 14 4 13 5 12 6 11 7 9 8 8 9 7 10 6 11 5 12
REMARK SMILES IDX 4 13 2 14 24 15 1 16 3 17 15 18 16 19 20 20 17 21 19 22
REMARK SMILES IDX 18 23 10 24
REMARK H PARENT 10 25
ROOT
ATOM      1  O   UNL     1      85.871  52.221  48.769  1.00  0.00    -0.294 OA
ATOM      2  C   UNL     1      86.041  52.686  47.643  1.00  0.00     0.174 C 
ATOM      3  C   UNL     1      85.519  54.031  47.233  1.00  0.00     0.131 C 
ATOM      4  C   UNL     1      86.457  54.591  46.175  1.00  0.00     0.211 C 
ATOM      5  O   UNL     1      86.504  53.721  45.035  1.00  0.00    -0.484 OA
ATOM      6  C   UNL     1      86.915  52.444  45.341  1.00  0.00     0.145 A 
ATOM      7  C   UNL     1      86.731  51.887  46.611  1.00  0.00     0.102 A 
ATOM      8  C   UNL     1      87.167  50.586  46.878  1.00  0.00     0.133 A 
ATOM      9  C   UNL     1      87.774  49.837  45.876  1.00  0.00     0.094 A 
ATOM     10  C   UNL     1      87.938  50.379  44.599  1.00  0.00     0.135 A 
ATOM     11  C   UNL     1      87.508  51.682  44.318  1.00  0.00     0.060 A 
ATOM     12  C   UNL     1      87.704  52.214  42.974  1.00  0.00     0.015 C 
ATOM     13  C   UNL     1      88.263  51.425  42.053  1.00  0.00     0.021 C 
ATOM     14  C   UNL     1      88.708  50.010  42.330  1.00  0.00     0.122 C 
ATOM     15  O   UNL     1      88.538  49.556  43.688  1.00  0.00    -0.483 OA
ATOM     16  C   UNL     1      90.204  49.879  42.018  1.00  0.00     0.061 C 
ATOM     17  C   UNL     1      87.910  49.044  41.445  1.00  0.00     0.061 C 
ENDROOT
BRANCH   4  18
ATOM     18  C   UNL     1      85.994  55.964  45.724  1.00  0.00    -0.007 A 
ATOM     19  C   UNL     1      85.085  56.717  46.486  1.00  0.00     0.007 A 
ATOM     20  C   UNL     1      86.502  56.521  44.540  1.00  0.00     0.007 A 
ATOM     21  C   UNL     1      84.689  57.988  46.068  1.00  0.00     0.000 A 
ATOM     22  C   UNL     1      86.104  57.793  44.124  1.00  0.00     0.000 A 
ATOM     23  C   UNL     1      85.197  58.525  44.888  1.00  0.00     0.000 A 
ENDBRANCH   4  18
BRANCH   8  24
ATOM     24  O   UNL     1      87.023  49.983  48.097  1.00  0.00    -0.507 OA
ATOM     25  H   UNL     1      86.530  50.595  48.689  1.00  0.00     0.293 HD
ENDBRANCH   8  24
TORSDOF 2
ENDMDL
MODEL 2
REMARK VINA RESULT:    -9.648      2.270      4.355
REMARK INTER + INTRA:         -10.836
REMARK INTER:                 -10.456
REMARK INTRA:                  -0.380
REMARK UNBOUND:                -0.342
REMARK SMILES CC1(C)C=Cc2c(cc(O)c3c2OC(c2ccccc2)CC3=O)O1
REMARK SMILES IDX 23 1 22 2 21 3 14 4 13 5 12 6 11 7 9 8 8 9 7 10 6 11 5 12
REMARK SMILES IDX 4 13 2 14 24 15 1 16 3 17 15 18 16 19 20 20 17 21 19 22
REMARK SMILES IDX 18 23 10 24
REMARK H PARENT 10 25
ROOT
ATOM      1  O   UNL     1      85.149  55.191  41.497  1.00  0.00    -0.294 OA
ATOM      2  C   UNL     1      85.567  54.495  42.420  1.00  0.00     0.174 C 
ATOM      3  C   UNL     1      85.372  54.856  43.863  1.00  0.00     0.131 C 
ATOM      4  C   UNL     1      85.309  53.563  44.662  1.00  0.00     0.211 C 
ATOM      5  O   UNL     1      86.527  52.819  44.508  1.00  0.00    -0.484 OA
ATOM      6  C   UNL     1      86.811  52.502  43.200  1.00  0.00     0.145 A 
ATOM      7  C   UNL     1      86.351  53.278  42.130  1.00  0.00     0.102 A 
ATOM      8  C   UNL     1      86.663  52.917  40.816  1.00  0.00     0.133 A 
ATOM      9  C   UNL     1      87.442  51.792  40.570  1.00  0.00     0.094 A 
ATOM     10  C   UNL     1      87.923  51.027  41.635  1.00  0.00     0.135 A 
ATOM     11  C   UNL     1      87.617  51.375  42.957  1.00  0.00     0.060 A 
ATOM     12  C   UNL     1      88.133  50.547  44.041  1.00  0.00     0.015 C 
ATOM     13  C   UNL     1      88.903  49.501  43.731  1.00  0.00     0.021 C 
ATOM     14  C   UNL     1      89.264  49.126  42.314  1.00  0.00     0.122 C 
ATOM     15  O   UNL     1      88.684  49.948  41.283  1.00  0.00    -0.483 OA
ATOM     16  C   UNL     1      88.796  47.692  42.035  1.00  0.00     0.061 C 
ATOM     17  C   UNL     1      90.786  49.216  42.139  1.00  0.00     0.061 C 
ENDROOT
BRANCH   4  18
ATOM     18  C   UNL     1      85.096  53.856  46.135  1.00  0.00    -0.007 A 
ATOM     19  C   UNL     1      84.374  54.982  46.561  1.00  0.00     0.007 A 
ATOM     20  C   UNL     1      85.597  52.972  47.104  1.00  0.00     0.007 A 
ATOM     21  C   UNL     1      84.167  55.222  47.920  1.00  0.00     0.000 A 
ATOM     22  C   UNL     1      85.388  53.214  48.463  1.00  0.00     0.000 A 
ATOM     23  C   UNL     1      84.675  54.340  48.870  1.00  0.00     0.000 A 
ENDBRANCH   4  18
BRANCH   8  24
ATOM     24  O   UNL     1      86.244  53.627  39.724  1.00  0.00    -0.507 OA
ATOM     25  H   UNL     1      87.028  53.816  39.159  1.00  0.00     0.293 HD
ENDBRANCH   8  24
TORSDOF 2
ENDMDL
MODEL 3
REMARK VINA RESULT:    -9.153      2.374      7.477
REMARK INTER + INTRA:         -10.298
REMARK INTER:                  -9.976
REMARK INTRA:                  -0.322
REMARK UNBOUND:                -0.342
REMARK SMILES CC1(C)C=Cc2c(cc(O)c3c2OC(c2ccccc2)CC3=O)O1
REMARK SMILES IDX 23 1 22 2 21 3 14 4 13 5 12 6 11 7 9 8 8 9 7 10 6 11 5 12
REMARK SMILES IDX 4 13 2 14 24 15 1 16 3 17 15 18 16 19 20 20 17 21 19 22
REMARK SMILES IDX 18 23 10 24
REMARK H PARENT 10 25
ROOT
ATOM      1  O   UNL     1      86.305  53.542  39.764  1.00  0.00    -0.294 OA
ATOM      2  C   UNL     1      86.587  52.880  40.761  1.00  0.00     0.174 C 
ATOM      3  C   UNL     1      87.253  51.539  40.684  1.00  0.00     0.131 C 
ATOM      4  C   UNL     1      88.085  51.359  41.945  1.00  0.00     0.211 C 
ATOM      5  O   UNL     1      87.248  51.419  43.110  1.00  0.00    -0.484 OA
ATOM      6  C   UNL     1      86.551  52.600  43.220  1.00  0.00     0.145 A 
ATOM      7  C   UNL     1      86.213  53.372  42.102  1.00  0.00     0.102 A 
ATOM      8  C   UNL     1      85.506  54.566  42.262  1.00  0.00     0.133 A 
ATOM      9  C   UNL     1      85.124  54.985  43.532  1.00  0.00     0.094 A 
ATOM     10  C   UNL     1      85.438  54.206  44.648  1.00  0.00     0.135 A 
ATOM     11  C   UNL     1      86.148  53.008  44.505  1.00  0.00     0.060 A 
ATOM     12  C   UNL     1      86.463  52.228  45.696  1.00  0.00     0.015 C 
ATOM     13  C   UNL     1      86.035  52.674  46.879  1.00  0.00     0.021 C 
ATOM     14  C   UNL     1      85.246  53.949  47.051  1.00  0.00     0.122 C 
ATOM     15  O   UNL     1      85.011  54.705  45.847  1.00  0.00    -0.483 OA
ATOM     16  C   UNL     1      85.997  54.885  48.005  1.00  0.00     0.061 C 
ATOM     17  C   UNL     1      83.866  53.617  47.634  1.00  0.00     0.061 C 
ENDROOT
BRANCH   4  18
ATOM     18  C   UNL     1      88.801  50.022  41.925  1.00  0.00    -0.007 A 
ATOM     19  C   UNL     1      88.107  48.822  41.699  1.00  0.00     0.007 A 
ATOM     20  C   UNL     1      90.193  49.970  42.101  1.00  0.00     0.007 A 
ATOM     21  C   UNL     1      88.786  47.604  41.660  1.00  0.00     0.000 A 
ATOM     22  C   UNL     1      90.870  48.750  42.062  1.00  0.00     0.000 A 
ATOM     23  C   UNL     1      90.166  47.568  41.842  1.00  0.00     0.000 A 
ENDBRANCH   4  18
BRANCH   8  24
ATOM     24  O   UNL     1      85.147  55.370  41.215  1.00  0.00    -0.507 OA
ATOM     25  H   UNL     1      84.209  55.643  41.342  1.00  0.00     0.293 HD
ENDBRANCH   8  24
TORSDOF 2
ENDMDL
MODEL 4
REMARK VINA RESULT:    -9.051      1.412      6.437
REMARK INTER + INTRA:         -10.187
REMARK INTER:                  -9.814
REMARK INTRA:                  -0.373
REMARK UNBOUND:                -0.342
REMARK SMILES CC1(C)C=Cc2c(cc(O)c3c2OC(c2ccccc2)CC3=O)O1
REMARK SMILES IDX 23 1 22 2 21 3 14 4 13 5 12 6 11 7 9 8 8 9 7 10 6 11 5 12
REMARK SMILES IDX 4 13 2 14 24 15 1 16 3 17 15 18 16 19 20 20 17 21 19 22
REMARK SMILES IDX 18 23 10 24
REMARK H PARENT 10 25
ROOT
ATOM      1  O   UNL     1      87.098  50.234  47.956  1.00  0.00    -0.294 OA
ATOM      2  C   UNL     1      87.343  50.719  46.854  1.00  0.00     0.174 C 
ATOM      3  C   UNL     1      88.362  50.137  45.919  1.00  0.00     0.131 C 
ATOM      4  C   UNL     1      87.921  50.449  44.498  1.00  0.00     0.211 C 
ATOM      5  O   UNL     1      87.835  51.868  44.299  1.00  0.00    -0.484 OA
ATOM      6  C   UNL     1      86.962  52.487  45.164  1.00  0.00     0.145 A 
ATOM      7  C   UNL     1      86.667  51.960  46.427  1.00  0.00     0.102 A 
ATOM      8  C   UNL     1      85.773  52.622  47.272  1.00  0.00     0.133 A 
ATOM      9  C   UNL     1      85.184  53.815  46.866  1.00  0.00     0.094 A 
ATOM     10  C   UNL     1      85.494  54.357  45.617  1.00  0.00     0.135 A 
ATOM     11  C   UNL     1      86.386  53.704  44.757  1.00  0.00     0.060 A 
ATOM     12  C   UNL     1      86.678  54.300  43.458  1.00  0.00     0.015 C 
ATOM     13  C   UNL     1      86.102  55.464  43.149  1.00  0.00     0.021 C 
ATOM     14  C   UNL     1      85.158  56.196  44.073  1.00  0.00     0.122 C 
ATOM     15  O   UNL     1      84.867  55.534  45.319  1.00  0.00    -0.483 OA
ATOM     16  C   UNL     1      83.812  56.395  43.367  1.00  0.00     0.061 C 
ATOM     17  C   UNL     1      85.759  57.560  44.433  1.00  0.00     0.061 C 
ENDROOT
BRANCH   4  18
ATOM     18  C   UNL     1      88.905  49.874  43.496  1.00  0.00    -0.007 A 
ATOM     19  C   UNL     1      88.972  50.353  42.178  1.00  0.00     0.007 A 
ATOM     20  C   UNL     1      89.797  48.864  43.890  1.00  0.00     0.007 A 
ATOM     21  C   UNL     1      89.900  49.829  41.276  1.00  0.00     0.000 A 
ATOM     22  C   UNL     1      90.725  48.342  42.987  1.00  0.00     0.000 A 
ATOM     23  C   UNL     1      90.775  48.824  41.680  1.00  0.00     0.000 A 
ENDBRANCH   4  18
BRANCH   8  24
ATOM     24  O   UNL     1      85.437  52.162  48.516  1.00  0.00    -0.507 OA
ATOM     25  H   UNL     1      84.823  52.811  48.930  1.00  0.00     0.293 HD
ENDBRANCH   8  24
TORSDOF 2
ENDMDL
MODEL 5
REMARK VINA RESULT:    -8.944      3.868      5.971
REMARK INTER + INTRA:         -10.070
REMARK INTER:                  -9.695
REMARK INTRA:                  -0.376
REMARK UNBOUND:                -0.342
REMARK SMILES CC1(C)C=Cc2c(cc(O)c3c2OC(c2ccccc2)CC3=O)O1
REMARK SMILES IDX 23 1 22 2 21 3 14 4 13 5 12 6 11 7 9 8 8 9 7 10 6 11 5 12
REMARK SMILES IDX 4 13 2 14 24 15 1 16 3 17 15 18 16 19 20 20 17 21 19 22
REMARK SMILES IDX 18 23 10 24
REMARK H PARENT 10 25
ROOT
ATOM      1  O   UNL     1      84.956  54.191  42.950  1.00  0.00    -0.294 OA
ATOM      2  C   UNL     1      84.965  52.964  43.019  1.00  0.00     0.174 C 
ATOM      3  C   UNL     1      83.757  52.163  43.406  1.00  0.00     0.131 C 
ATOM      4  C   UNL     1      83.853  50.812  42.714  1.00  0.00     0.211 C 
ATOM      5  O   UNL     1      85.043  50.123  43.122  1.00  0.00    -0.484 OA
ATOM      6  C   UNL     1      86.197  50.823  42.857  1.00  0.00     0.145 A 
ATOM      7  C   UNL     1      86.217  52.221  42.776  1.00  0.00     0.102 A 
ATOM      8  C   UNL     1      87.413  52.891  42.503  1.00  0.00     0.133 A 
ATOM      9  C   UNL     1      88.589  52.171  42.323  1.00  0.00     0.094 A 
ATOM     10  C   UNL     1      88.579  50.778  42.427  1.00  0.00     0.135 A 
ATOM     11  C   UNL     1      87.389  50.092  42.698  1.00  0.00     0.060 A 
ATOM     12  C   UNL     1      87.419  48.637  42.791  1.00  0.00     0.015 C 
ATOM     13  C   UNL     1      88.590  48.015  42.641  1.00  0.00     0.021 C 
ATOM     14  C   UNL     1      89.888  48.739  42.375  1.00  0.00     0.122 C 
ATOM     15  O   UNL     1      89.788  50.170  42.241  1.00  0.00    -0.483 OA
ATOM     16  C   UNL     1      90.494  48.226  41.063  1.00  0.00     0.061 C 
ATOM     17  C   UNL     1      90.862  48.476  43.530  1.00  0.00     0.061 C 
ENDROOT
BRANCH   4  18
ATOM     18  C   UNL     1      82.649  49.953  43.052  1.00  0.00    -0.007 A 
ATOM     19  C   UNL     1      81.340  50.396  42.801  1.00  0.00     0.007 A 
ATOM     20  C   UNL     1      82.833  48.671  43.594  1.00  0.00     0.007 A 
ATOM     21  C   UNL     1      80.245  49.581  43.096  1.00  0.00     0.000 A 
ATOM     22  C   UNL     1      81.736  47.859  43.888  1.00  0.00     0.000 A 
ATOM     23  C   UNL     1      80.443  48.315  43.639  1.00  0.00     0.000 A 
ENDBRANCH   4  18
BRANCH   8  24
ATOM     24  O   UNL     1      87.503  54.252  42.406  1.00  0.00    -0.507 OA
ATOM     25  H   UNL     1      88.368  54.533  42.785  1.00  0.00     0.293 HD
ENDBRANCH   8  24
TORSDOF 2
ENDMDL
MODEL 6
REMARK VINA RESULT:    -8.889      5.700      7.370
REMARK INTER + INTRA:         -10.011
REMARK INTER:                  -9.631
REMARK INTRA:                  -0.380
REMARK UNBOUND:                -0.342
REMARK SMILES CC1(C)C=Cc2c(cc(O)c3c2OC(c2ccccc2)CC3=O)O1
REMARK SMILES IDX 23 1 22 2 21 3 14 4 13 5 12 6 11 7 9 8 8 9 7 10 6 11 5 12
REMARK SMILES IDX 4 13 2 14 24 15 1 16 3 17 15 18 16 19 20 20 17 21 19 22
REMARK SMILES IDX 18 23 10 24
REMARK H PARENT 10 25
ROOT
ATOM      1  O   UNL     1      84.626  43.586  42.523  1.00  0.00    -0.294 OA
ATOM      2  C   UNL     1      84.793  44.803  42.575  1.00  0.00     0.174 C 
ATOM      3  C   UNL     1      83.655  45.780  42.572  1.00  0.00     0.131 C 
ATOM      4  C   UNL     1      84.095  47.010  43.352  1.00  0.00     0.211 C 
ATOM      5  O   UNL     1      85.248  47.606  42.739  1.00  0.00    -0.484 OA
ATOM      6  C   UNL     1      86.321  46.749  42.646  1.00  0.00     0.145 A 
ATOM      7  C   UNL     1      86.160  45.360  42.581  1.00  0.00     0.102 A 
ATOM      8  C   UNL     1      87.279  44.528  42.490  1.00  0.00     0.133 A 
ATOM      9  C   UNL     1      88.555  45.078  42.451  1.00  0.00     0.094 A 
ATOM     10  C   UNL     1      88.719  46.465  42.491  1.00  0.00     0.135 A 
ATOM     11  C   UNL     1      87.609  47.312  42.585  1.00  0.00     0.060 A 
ATOM     12  C   UNL     1      87.823  48.754  42.632  1.00  0.00     0.015 C 
ATOM     13  C   UNL     1      89.074  49.214  42.555  1.00  0.00     0.021 C 
ATOM     14  C   UNL     1      90.282  48.317  42.427  1.00  0.00     0.122 C 
ATOM     15  O   UNL     1      90.013  46.901  42.439  1.00  0.00    -0.483 OA
ATOM     16  C   UNL     1      91.236  48.583  43.599  1.00  0.00     0.061 C 
ATOM     17  C   UNL     1      90.996  48.615  41.103  1.00  0.00     0.061 C 
ENDROOT
BRANCH   4  18
ATOM     18  C   UNL     1      82.981  48.038  43.401  1.00  0.00    -0.007 A 
ATOM     19  C   UNL     1      83.254  49.415  43.378  1.00  0.00     0.007 A 
ATOM     20  C   UNL     1      81.641  47.618  43.436  1.00  0.00     0.007 A 
ATOM     21  C   UNL     1      82.215  50.347  43.399  1.00  0.00     0.000 A 
ATOM     22  C   UNL     1      80.604  48.552  43.457  1.00  0.00     0.000 A 
ATOM     23  C   UNL     1      80.891  49.916  43.439  1.00  0.00     0.000 A 
ENDBRANCH   4  18
BRANCH   8  24
ATOM     24  O   UNL     1      87.195  43.164  42.427  1.00  0.00    -0.507 OA
ATOM     25  H   UNL     1      86.320  42.891  42.786  1.00  0.00     0.293 HD
ENDBRANCH   8  24
TORSDOF 2
ENDMDL
MODEL 7
REMARK VINA RESULT:    -8.880      2.979      5.294
REMARK INTER + INTRA:         -10.002
REMARK INTER:                  -9.678
REMARK INTRA:                  -0.323
REMARK UNBOUND:                -0.342
REMARK SMILES CC1(C)C=Cc2c(cc(O)c3c2OC(c2ccccc2)CC3=O)O1
REMARK SMILES IDX 23 1 22 2 21 3 14 4 13 5 12 6 11 7 9 8 8 9 7 10 6 11 5 12
REMARK SMILES IDX 4 13 2 14 24 15 1 16 3 17 15 18 16 19 20 20 17 21 19 22
REMARK SMILES IDX 18 23 10 24
REMARK H PARENT 10 25
ROOT
ATOM      1  O   UNL     1      88.694  52.120  42.272  1.00  0.00    -0.294 OA
ATOM      2  C   UNL     1      88.006  51.490  43.073  1.00  0.00     0.174 C 
ATOM      3  C   UNL     1      87.542  52.070  44.376  1.00  0.00     0.131 C 
ATOM      4  C   UNL     1      86.219  51.412  44.733  1.00  0.00     0.211 C 
ATOM      5  O   UNL     1      86.384  49.993  44.866  1.00  0.00    -0.484 OA
ATOM      6  C   UNL     1      86.869  49.392  43.727  1.00  0.00     0.145 A 
ATOM      7  C   UNL     1      87.657  50.082  42.799  1.00  0.00     0.102 A 
ATOM      8  C   UNL     1      88.126  49.432  41.655  1.00  0.00     0.133 A 
ATOM      9  C   UNL     1      87.822  48.092  41.441  1.00  0.00     0.094 A 
ATOM     10  C   UNL     1      87.056  47.392  42.377  1.00  0.00     0.135 A 
ATOM     11  C   UNL     1      86.576  48.030  43.527  1.00  0.00     0.060 A 
ATOM     12  C   UNL     1      85.774  47.266  44.475  1.00  0.00     0.015 C 
ATOM     13  C   UNL     1      85.550  45.974  44.222  1.00  0.00     0.021 C 
ATOM     14  C   UNL     1      86.080  45.262  43.001  1.00  0.00     0.122 C 
ATOM     15  O   UNL     1      86.821  46.080  42.074  1.00  0.00    -0.483 OA
ATOM     16  C   UNL     1      84.907  44.672  42.210  1.00  0.00     0.061 C 
ATOM     17  C   UNL     1      87.025  44.137  43.441  1.00  0.00     0.061 C 
ENDROOT
BRANCH   4  18
ATOM     18  C   UNL     1      85.682  51.966  46.040  1.00  0.00    -0.007 A 
ATOM     19  C   UNL     1      86.286  51.657  47.269  1.00  0.00     0.007 A 
ATOM     20  C   UNL     1      84.581  52.837  46.032  1.00  0.00     0.007 A 
ATOM     21  C   UNL     1      85.794  52.195  48.459  1.00  0.00     0.000 A 
ATOM     22  C   UNL     1      84.091  53.375  47.224  1.00  0.00     0.000 A 
ATOM     23  C   UNL     1      84.697  53.053  48.436  1.00  0.00     0.000 A 
ENDBRANCH   4  18
BRANCH   8  24
ATOM     24  O   UNL     1      88.896  50.047  40.706  1.00  0.00    -0.507 OA
ATOM     25  H   UNL     1      88.364  50.130  39.882  1.00  0.00     0.293 HD
ENDBRANCH   8  24
TORSDOF 2
ENDMDL
MODEL 8
REMARK VINA RESULT:    -8.748      6.757      7.666
REMARK INTER + INTRA:          -9.857
REMARK INTER:                  -9.495
REMARK INTRA:                  -0.362
REMARK UNBOUND:                -0.342
REMARK SMILES CC1(C)C=Cc2c(cc(O)c3c2OC(c2ccccc2)CC3=O)O1
REMARK SMILES IDX 23 1 22 2 21 3 14 4 13 5 12 6 11 7 9 8 8 9 7 10 6 11 5 12
REMARK SMILES IDX 4 13 2 14 24 15 1 16 3 17 15 18 16 19 20 20 17 21 19 22
REMARK SMILES IDX 18 23 10 24
REMARK H PARENT 10 25
ROOT
ATOM      1  O   UNL     1      80.935  45.495  43.863  1.00  0.00    -0.294 OA
ATOM      2  C   UNL     1      80.911  46.723  43.819  1.00  0.00     0.174 C 
ATOM      3  C   UNL     1      79.635  47.510  43.786  1.00  0.00     0.131 C 
ATOM      4  C   UNL     1      79.897  48.850  44.456  1.00  0.00     0.211 C 
ATOM      5  O   UNL     1      80.926  49.566  43.758  1.00  0.00    -0.484 OA
ATOM      6  C   UNL     1      82.117  48.881  43.690  1.00  0.00     0.145 A 
ATOM      7  C   UNL     1      82.174  47.483  43.733  1.00  0.00     0.102 A 
ATOM      8  C   UNL     1      83.407  46.829  43.662  1.00  0.00     0.133 A 
ATOM      9  C   UNL     1      84.580  47.564  43.535  1.00  0.00     0.094 A 
ATOM     10  C   UNL     1      84.526  48.959  43.466  1.00  0.00     0.135 A 
ATOM     11  C   UNL     1      83.299  49.629  43.539  1.00  0.00     0.060 A 
ATOM     12  C   UNL     1      83.286  51.086  43.471  1.00  0.00     0.015 C 
ATOM     13  C   UNL     1      84.447  51.725  43.314  1.00  0.00     0.021 C 
ATOM     14  C   UNL     1      85.777  51.019  43.208  1.00  0.00     0.122 C 
ATOM     15  O   UNL     1      85.734  49.584  43.334  1.00  0.00    -0.483 OA
ATOM     16  C   UNL     1      86.707  51.520  44.320  1.00  0.00     0.061 C 
ATOM     17  C   UNL     1      86.402  51.317  41.840  1.00  0.00     0.061 C 
ENDROOT
BRANCH   4  18
ATOM     18  C   UNL     1      78.637  49.695  44.471  1.00  0.00    -0.007 A 
ATOM     19  C   UNL     1      78.500  50.820  43.643  1.00  0.00     0.007 A 
ATOM     20  C   UNL     1      77.562  49.335  45.300  1.00  0.00     0.007 A 
ATOM     21  C   UNL     1      77.324  51.572  43.651  1.00  0.00     0.000 A 
ATOM     22  C   UNL     1      76.386  50.088  45.306  1.00  0.00     0.000 A 
ATOM     23  C   UNL     1      76.268  51.206  44.483  1.00  0.00     0.000 A 
ENDBRANCH   4  18
BRANCH   8  24
ATOM     24  O   UNL     1      83.536  45.467  43.703  1.00  0.00    -0.507 OA
ATOM     25  H   UNL     1      84.378  45.223  43.254  1.00  0.00     0.293 HD
ENDBRANCH   8  24
TORSDOF 2
ENDMDL
MODEL 9
REMARK VINA RESULT:    -8.586      3.814      7.312
REMARK INTER + INTRA:          -9.681
REMARK INTER:                  -9.339
REMARK INTRA:                  -0.342
REMARK UNBOUND:                -0.342
REMARK SMILES CC1(C)C=Cc2c(cc(O)c3c2OC(c2ccccc2)CC3=O)O1
REMARK SMILES IDX 23 1 22 2 21 3 14 4 13 5 12 6 11 7 9 8 8 9 7 10 6 11 5 12
REMARK SMILES IDX 4 13 2 14 24 15 1 16 3 17 15 18 16 19 20 20 17 21 19 22
REMARK SMILES IDX 18 23 10 24
REMARK H PARENT 10 25
ROOT
ATOM      1  O   UNL     1      83.619  47.660  44.187  1.00  0.00    -0.294 OA
ATOM      2  C   UNL     1      84.494  48.423  43.782  1.00  0.00     0.174 C 
ATOM      3  C   UNL     1      85.955  48.093  43.850  1.00  0.00     0.131 C 
ATOM      4  C   UNL     1      86.645  48.797  42.692  1.00  0.00     0.211 C 
ATOM      5  O   UNL     1      86.464  50.218  42.789  1.00  0.00    -0.484 OA
ATOM      6  C   UNL     1      85.142  50.599  42.797  1.00  0.00     0.145 A 
ATOM      7  C   UNL     1      84.126  49.753  43.256  1.00  0.00     0.102 A 
ATOM      8  C   UNL     1      82.796  50.182  43.244  1.00  0.00     0.133 A 
ATOM      9  C   UNL     1      82.480  51.457  42.786  1.00  0.00     0.094 A 
ATOM     10  C   UNL     1      83.493  52.314  42.350  1.00  0.00     0.135 A 
ATOM     11  C   UNL     1      84.830  51.898  42.354  1.00  0.00     0.060 A 
ATOM     12  C   UNL     1      85.857  52.820  41.883  1.00  0.00     0.015 C 
ATOM     13  C   UNL     1      85.484  54.040  41.491  1.00  0.00     0.021 C 
ATOM     14  C   UNL     1      84.051  54.516  41.504  1.00  0.00     0.122 C 
ATOM     15  O   UNL     1      83.075  53.545  41.929  1.00  0.00    -0.483 OA
ATOM     16  C   UNL     1      83.646  54.941  40.087  1.00  0.00     0.061 C 
ATOM     17  C   UNL     1      83.922  55.710  42.458  1.00  0.00     0.061 C 
ENDROOT
BRANCH   4  18
ATOM     18  C   UNL     1      88.132  48.493  42.692  1.00  0.00    -0.007 A 
ATOM     19  C   UNL     1      89.041  49.285  43.412  1.00  0.00     0.007 A 
ATOM     20  C   UNL     1      88.619  47.378  41.991  1.00  0.00     0.007 A 
ATOM     21  C   UNL     1      90.402  48.975  43.421  1.00  0.00     0.000 A 
ATOM     22  C   UNL     1      89.981  47.071  42.002  1.00  0.00     0.000 A 
ATOM     23  C   UNL     1      90.871  47.870  42.716  1.00  0.00     0.000 A 
ENDBRANCH   4  18
BRANCH   8  24
ATOM     24  O   UNL     1      81.755  49.406  43.673  1.00  0.00    -0.507 OA
ATOM     25  H   UNL     1      82.123  48.649  44.183  1.00  0.00     0.293 HD
ENDBRANCH   8  24
TORSDOF 2
ENDMDL
