MODEL 1
REMARK VINA RESULT:    -8.305      0.000      0.000
REMARK INTER + INTRA:          -9.558
REMARK INTER:                  -9.248
REMARK INTRA:                  -0.310
REMARK UNBOUND:                -0.281
REMARK SMILES O=C1C[C@@H](c2ccccc2)Oc2cc(O)cc(O)c21
REMARK SMILES IDX 14 1 13 2 12 3 11 4 4 5 3 6 2 7 1 8 19 9 17 10 16 11 15 12
REMARK SMILES IDX 18 14 5 16 6 17 10 18 7 19 9 20 8 21
REMARK H PARENT 15 13 18 15
ROOT
ATOM      1  C   UNL     1      85.878  58.012  44.325  1.00  0.00     0.123 A 
ATOM      2  C   UNL     1      86.370  56.709  44.291  1.00  0.00     0.093 A 
ATOM      3  C   UNL     1      85.837  55.756  45.161  1.00  0.00     0.138 A 
ATOM      4  O   UNL     1      86.370  54.496  45.081  1.00  0.00    -0.484 OA
ATOM      5  C   UNL     1      86.197  53.737  46.291  1.00  0.00     0.211 C 
ATOM      6  C   UNL     1      84.727  53.649  46.673  1.00  0.00     0.131 C 
ATOM      7  C   UNL     1      84.215  55.045  46.877  1.00  0.00     0.174 C 
ATOM      8  O   UNL     1      83.312  55.319  47.664  1.00  0.00    -0.294 OA
ATOM      9  C   UNL     1      84.800  56.101  46.030  1.00  0.00     0.102 A 
ATOM     10  C   UNL     1      84.317  57.414  46.055  1.00  0.00     0.133 A 
ATOM     11  C   UNL     1      84.860  58.372  45.204  1.00  0.00     0.093 A 
ENDROOT
BRANCH   1  12
ATOM     12  O   UNL     1      86.376  58.978  43.502  1.00  0.00    -0.508 OA
ATOM     13  H   UNL     1      85.668  59.296  42.916  1.00  0.00     0.293 HD
ENDBRANCH   1  12
BRANCH  10  14
ATOM     14  O   UNL     1      83.306  57.821  46.884  1.00  0.00    -0.507 OA
ATOM     15  H   UNL     1      83.680  57.951  47.783  1.00  0.00     0.293 HD
ENDBRANCH  10  14
BRANCH   5  16
ATOM     16  C   UNL     1      86.779  52.350  46.087  1.00  0.00    -0.007 A 
ATOM     17  C   UNL     1      86.802  51.409  47.129  1.00  0.00     0.007 A 
ATOM     18  C   UNL     1      87.341  52.000  44.851  1.00  0.00     0.007 A 
ATOM     19  C   UNL     1      87.364  50.146  46.934  1.00  0.00     0.000 A 
ATOM     20  C   UNL     1      87.903  50.736  44.658  1.00  0.00     0.000 A 
ATOM     21  C   UNL     1      87.913  49.810  45.698  1.00  0.00     0.000 A 
ENDBRANCH   5  16
TORSDOF 3
ENDMDL
MODEL 2
REMARK VINA RESULT:    -7.891      7.310      8.514
REMARK INTER + INTRA:          -9.095
REMARK INTER:                  -8.777
REMARK INTRA:                  -0.318
REMARK UNBOUND:                -0.281
REMARK SMILES O=C1C[C@@H](c2ccccc2)Oc2cc(O)cc(O)c21
REMARK SMILES IDX 14 1 13 2 12 3 11 4 4 5 3 6 2 7 1 8 19 9 17 10 16 11 15 12
REMARK SMILES IDX 18 14 5 16 6 17 10 18 7 19 9 20 8 21
REMARK H PARENT 15 13 18 15
ROOT
ATOM      1  C   UNL     1      80.878  50.406  42.736  1.00  0.00     0.123 A 
ATOM      2  C   UNL     1      82.064  49.696  42.563  1.00  0.00     0.093 A 
ATOM      3  C   UNL     1      82.181  48.419  43.111  1.00  0.00     0.138 A 
ATOM      4  O   UNL     1      83.375  47.777  42.911  1.00  0.00    -0.484 OA
ATOM      5  C   UNL     1      83.640  46.764  43.897  1.00  0.00     0.211 C 
ATOM      6  C   UNL     1      82.512  45.743  43.945  1.00  0.00     0.131 C 
ATOM      7  C   UNL     1      81.245  46.467  44.295  1.00  0.00     0.174 C 
ATOM      8  O   UNL     1      80.323  45.942  44.916  1.00  0.00    -0.294 OA
ATOM      9  C   UNL     1      81.106  47.848  43.797  1.00  0.00     0.102 A 
ATOM     10  C   UNL     1      79.921  48.573  43.965  1.00  0.00     0.133 A 
ATOM     11  C   UNL     1      79.809  49.856  43.437  1.00  0.00     0.093 A 
ENDROOT
BRANCH   1  12
ATOM     12  O   UNL     1      80.724  51.661  42.226  1.00  0.00    -0.508 OA
ATOM     13  H   UNL     1      81.315  52.273  42.698  1.00  0.00     0.293 HD
ENDBRANCH   1  12
BRANCH  10  14
ATOM     14  O   UNL     1      78.832  48.077  44.629  1.00  0.00    -0.507 OA
ATOM     15  H   UNL     1      79.143  47.659  45.462  1.00  0.00     0.293 HD
ENDBRANCH  10  14
BRANCH   5  16
ATOM     16  C   UNL     1      84.957  46.087  43.563  1.00  0.00    -0.007 A 
ATOM     17  C   UNL     1      85.891  46.692  42.707  1.00  0.00     0.007 A 
ATOM     18  C   UNL     1      85.246  44.817  44.084  1.00  0.00     0.007 A 
ATOM     19  C   UNL     1      87.087  46.046  42.389  1.00  0.00     0.000 A 
ATOM     20  C   UNL     1      86.442  44.173  43.765  1.00  0.00     0.000 A 
ATOM     21  C   UNL     1      87.362  44.787  42.919  1.00  0.00     0.000 A 
ENDBRANCH   5  16
TORSDOF 3
ENDMDL
MODEL 3
REMARK VINA RESULT:    -7.781      1.926      3.169
REMARK INTER + INTRA:          -8.972
REMARK INTER:                  -8.676
REMARK INTRA:                  -0.296
REMARK UNBOUND:                -0.281
REMARK SMILES O=C1C[C@@H](c2ccccc2)Oc2cc(O)cc(O)c21
REMARK SMILES IDX 14 1 13 2 12 3 11 4 4 5 3 6 2 7 1 8 19 9 17 10 16 11 15 12
REMARK SMILES IDX 18 14 5 16 6 17 10 18 7 19 9 20 8 21
REMARK H PARENT 15 13 18 15
ROOT
ATOM      1  C   UNL     1      84.813  57.521  44.502  1.00  0.00     0.123 A 
ATOM      2  C   UNL     1      85.338  56.517  45.313  1.00  0.00     0.093 A 
ATOM      3  C   UNL     1      85.678  55.289  44.743  1.00  0.00     0.138 A 
ATOM      4  O   UNL     1      86.183  54.342  45.595  1.00  0.00    -0.484 OA
ATOM      5  C   UNL     1      86.010  53.000  45.108  1.00  0.00     0.211 C 
ATOM      6  C   UNL     1      86.637  52.836  43.731  1.00  0.00     0.131 C 
ATOM      7  C   UNL     1      85.966  53.801  42.797  1.00  0.00     0.174 C 
ATOM      8  O   UNL     1      85.829  53.584  41.595  1.00  0.00    -0.294 OA
ATOM      9  C   UNL     1      85.523  55.086  43.370  1.00  0.00     0.102 A 
ATOM     10  C   UNL     1      84.993  56.102  42.568  1.00  0.00     0.133 A 
ATOM     11  C   UNL     1      84.632  57.321  43.137  1.00  0.00     0.093 A 
ENDROOT
BRANCH   1  12
ATOM     12  O   UNL     1      84.457  58.732  45.018  1.00  0.00    -0.508 OA
ATOM     13  H   UNL     1      84.219  58.624  45.955  1.00  0.00     0.293 HD
ENDBRANCH   1  12
BRANCH  10  14
ATOM     14  O   UNL     1      84.810  55.969  41.219  1.00  0.00    -0.507 OA
ATOM     15  H   UNL     1      84.091  55.316  41.068  1.00  0.00     0.293 HD
ENDBRANCH  10  14
BRANCH   5  16
ATOM     16  C   UNL     1      86.637  52.034  46.098  1.00  0.00    -0.007 A 
ATOM     17  C   UNL     1      87.676  51.171  45.715  1.00  0.00     0.007 A 
ATOM     18  C   UNL     1      86.155  51.967  47.414  1.00  0.00     0.007 A 
ATOM     19  C   UNL     1      88.225  50.270  46.630  1.00  0.00     0.000 A 
ATOM     20  C   UNL     1      86.705  51.065  48.327  1.00  0.00     0.000 A 
ATOM     21  C   UNL     1      87.740  50.218  47.935  1.00  0.00     0.000 A 
ENDBRANCH   5  16
TORSDOF 3
ENDMDL
MODEL 4
REMARK VINA RESULT:    -7.737      7.066      9.013
REMARK INTER + INTRA:          -8.923
REMARK INTER:                  -8.609
REMARK INTRA:                  -0.314
REMARK UNBOUND:                -0.281
REMARK SMILES O=C1C[C@@H](c2ccccc2)Oc2cc(O)cc(O)c21
REMARK SMILES IDX 14 1 13 2 12 3 11 4 4 5 3 6 2 7 1 8 19 9 17 10 16 11 15 12
REMARK SMILES IDX 18 14 5 16 6 17 10 18 7 19 9 20 8 21
REMARK H PARENT 15 13 18 15
ROOT
ATOM      1  C   UNL     1      80.310  47.021  44.248  1.00  0.00     0.123 A 
ATOM      2  C   UNL     1      81.436  46.203  44.188  1.00  0.00     0.093 A 
ATOM      3  C   UNL     1      82.673  46.768  43.876  1.00  0.00     0.138 A 
ATOM      4  O   UNL     1      83.739  45.908  43.826  1.00  0.00    -0.484 OA
ATOM      5  C   UNL     1      84.818  46.399  43.011  1.00  0.00     0.211 C 
ATOM      6  C   UNL     1      85.284  47.765  43.492  1.00  0.00     0.131 C 
ATOM      7  C   UNL     1      84.120  48.710  43.408  1.00  0.00     0.174 C 
ATOM      8  O   UNL     1      84.248  49.914  43.199  1.00  0.00    -0.294 OA
ATOM      9  C   UNL     1      82.782  48.143  43.660  1.00  0.00     0.102 A 
ATOM     10  C   UNL     1      81.643  48.953  43.722  1.00  0.00     0.133 A 
ATOM     11  C   UNL     1      80.403  48.389  44.012  1.00  0.00     0.093 A 
ENDROOT
BRANCH   1  12
ATOM     12  O   UNL     1      79.079  46.510  44.539  1.00  0.00    -0.508 OA
ATOM     13  H   UNL     1      78.768  46.884  45.381  1.00  0.00     0.293 HD
ENDBRANCH   1  12
BRANCH  10  14
ATOM     14  O   UNL     1      81.677  50.306  43.517  1.00  0.00    -0.507 OA
ATOM     15  H   UNL     1      81.624  50.751  44.392  1.00  0.00     0.293 HD
ENDBRANCH  10  14
BRANCH   5  16
ATOM     16  C   UNL     1      85.960  45.400  43.056  1.00  0.00    -0.007 A 
ATOM     17  C   UNL     1      85.862  44.214  43.801  1.00  0.00     0.007 A 
ATOM     18  C   UNL     1      87.156  45.671  42.373  1.00  0.00     0.007 A 
ATOM     19  C   UNL     1      86.931  43.317  43.853  1.00  0.00     0.000 A 
ATOM     20  C   UNL     1      88.223  44.773  42.427  1.00  0.00     0.000 A 
ATOM     21  C   UNL     1      88.111  43.597  43.165  1.00  0.00     0.000 A 
ENDBRANCH   5  16
TORSDOF 3
ENDMDL
MODEL 5
REMARK VINA RESULT:    -7.639      8.113     10.196
REMARK INTER + INTRA:          -8.813
REMARK INTER:                  -8.497
REMARK INTRA:                  -0.316
REMARK UNBOUND:                -0.281
REMARK SMILES O=C1C[C@@H](c2ccccc2)Oc2cc(O)cc(O)c21
REMARK SMILES IDX 14 1 13 2 12 3 11 4 4 5 3 6 2 7 1 8 19 9 17 10 16 11 15 12
REMARK SMILES IDX 18 14 5 16 6 17 10 18 7 19 9 20 8 21
REMARK H PARENT 15 13 18 15
ROOT
ATOM      1  C   UNL     1      88.529  47.340  41.846  1.00  0.00     0.123 A 
ATOM      2  C   UNL     1      87.249  47.766  42.192  1.00  0.00     0.093 A 
ATOM      3  C   UNL     1      86.357  46.855  42.760  1.00  0.00     0.138 A 
ATOM      4  O   UNL     1      85.112  47.336  43.070  1.00  0.00    -0.484 OA
ATOM      5  C   UNL     1      84.111  46.305  43.132  1.00  0.00     0.211 C 
ATOM      6  C   UNL     1      84.506  45.223  44.127  1.00  0.00     0.131 C 
ATOM      7  C   UNL     1      85.811  44.632  43.679  1.00  0.00     0.174 C 
ATOM      8  O   UNL     1      86.128  43.465  43.898  1.00  0.00    -0.294 OA
ATOM      9  C   UNL     1      86.759  45.541  43.008  1.00  0.00     0.102 A 
ATOM     10  C   UNL     1      88.047  45.126  42.654  1.00  0.00     0.133 A 
ATOM     11  C   UNL     1      88.933  46.026  42.068  1.00  0.00     0.093 A 
ENDROOT
BRANCH   1  12
ATOM     12  O   UNL     1      89.429  48.192  41.279  1.00  0.00    -0.508 OA
ATOM     13  H   UNL     1      89.066  48.533  40.444  1.00  0.00     0.293 HD
ENDBRANCH   1  12
BRANCH  10  14
ATOM     14  O   UNL     1      88.505  43.853  42.865  1.00  0.00    -0.507 OA
ATOM     15  H   UNL     1      89.004  43.570  42.067  1.00  0.00     0.293 HD
ENDBRANCH  10  14
BRANCH   5  16
ATOM     16  C   UNL     1      82.785  46.930  43.522  1.00  0.00    -0.007 A 
ATOM     17  C   UNL     1      82.473  48.254  43.174  1.00  0.00     0.007 A 
ATOM     18  C   UNL     1      81.858  46.196  44.277  1.00  0.00     0.007 A 
ATOM     19  C   UNL     1      81.259  48.825  43.562  1.00  0.00     0.000 A 
ATOM     20  C   UNL     1      80.644  46.769  44.664  1.00  0.00     0.000 A 
ATOM     21  C   UNL     1      80.345  48.081  44.306  1.00  0.00     0.000 A 
ENDBRANCH   5  16
TORSDOF 3
ENDMDL
MODEL 6
REMARK VINA RESULT:    -7.630      2.464      3.194
REMARK INTER + INTRA:          -8.803
REMARK INTER:                  -8.522
REMARK INTRA:                  -0.281
REMARK UNBOUND:                -0.281
REMARK SMILES O=C1C[C@@H](c2ccccc2)Oc2cc(O)cc(O)c21
REMARK SMILES IDX 14 1 13 2 12 3 11 4 4 5 3 6 2 7 1 8 19 9 17 10 16 11 15 12
REMARK SMILES IDX 18 14 5 16 6 17 10 18 7 19 9 20 8 21
REMARK H PARENT 15 13 18 15
ROOT
ATOM      1  C   UNL     1      83.907  54.587  41.404  1.00  0.00     0.123 A 
ATOM      2  C   UNL     1      84.311  53.632  42.334  1.00  0.00     0.093 A 
ATOM      3  C   UNL     1      84.972  54.045  43.492  1.00  0.00     0.138 A 
ATOM      4  O   UNL     1      85.349  53.056  44.362  1.00  0.00    -0.484 OA
ATOM      5  C   UNL     1      86.443  53.444  45.213  1.00  0.00     0.211 C 
ATOM      6  C   UNL     1      86.107  54.709  45.989  1.00  0.00     0.131 C 
ATOM      7  C   UNL     1      85.826  55.802  44.998  1.00  0.00     0.174 C 
ATOM      8  O   UNL     1      86.049  56.988  45.229  1.00  0.00    -0.294 OA
ATOM      9  C   UNL     1      85.193  55.404  43.727  1.00  0.00     0.102 A 
ATOM     10  C   UNL     1      84.783  56.352  42.784  1.00  0.00     0.133 A 
ATOM     11  C   UNL     1      84.143  55.942  41.617  1.00  0.00     0.093 A 
ENDROOT
BRANCH   1  12
ATOM     12  O   UNL     1      83.268  54.228  40.254  1.00  0.00    -0.508 OA
ATOM     13  H   UNL     1      83.274  53.259  40.174  1.00  0.00     0.293 HD
ENDBRANCH   1  12
BRANCH  10  14
ATOM     14  O   UNL     1      84.972  57.697  42.948  1.00  0.00    -0.507 OA
ATOM     15  H   UNL     1      84.100  58.143  42.863  1.00  0.00     0.293 HD
ENDBRANCH  10  14
BRANCH   5  16
ATOM     16  C   UNL     1      86.755  52.303  46.163  1.00  0.00    -0.007 A 
ATOM     17  C   UNL     1      86.165  52.231  47.435  1.00  0.00     0.007 A 
ATOM     18  C   UNL     1      87.676  51.312  45.791  1.00  0.00     0.007 A 
ATOM     19  C   UNL     1      86.482  51.189  48.308  1.00  0.00     0.000 A 
ATOM     20  C   UNL     1      87.991  50.270  46.666  1.00  0.00     0.000 A 
ATOM     21  C   UNL     1      87.394  50.209  47.923  1.00  0.00     0.000 A 
ENDBRANCH   5  16
TORSDOF 3
ENDMDL
MODEL 7
REMARK VINA RESULT:    -7.602      1.756      3.395
REMARK INTER + INTRA:          -8.772
REMARK INTER:                  -8.457
REMARK INTRA:                  -0.315
REMARK UNBOUND:                -0.281
REMARK SMILES O=C1C[C@@H](c2ccccc2)Oc2cc(O)cc(O)c21
REMARK SMILES IDX 14 1 13 2 12 3 11 4 4 5 3 6 2 7 1 8 19 9 17 10 16 11 15 12
REMARK SMILES IDX 18 14 5 16 6 17 10 18 7 19 9 20 8 21
REMARK H PARENT 15 13 18 15
ROOT
ATOM      1  C   UNL     1      84.478  55.282  47.528  1.00  0.00     0.123 A 
ATOM      2  C   UNL     1      85.300  54.254  47.071  1.00  0.00     0.093 A 
ATOM      3  C   UNL     1      85.749  54.277  45.750  1.00  0.00     0.138 A 
ATOM      4  O   UNL     1      86.548  53.233  45.361  1.00  0.00    -0.484 OA
ATOM      5  C   UNL     1      86.535  53.016  43.939  1.00  0.00     0.211 C 
ATOM      6  C   UNL     1      86.941  54.278  43.192  1.00  0.00     0.131 C 
ATOM      7  C   UNL     1      85.964  55.362  43.545  1.00  0.00     0.174 C 
ATOM      8  O   UNL     1      85.668  56.273  42.775  1.00  0.00    -0.294 OA
ATOM      9  C   UNL     1      85.405  55.338  44.910  1.00  0.00     0.102 A 
ATOM     10  C   UNL     1      84.578  56.363  45.381  1.00  0.00     0.133 A 
ATOM     11  C   UNL     1      84.110  56.332  46.692  1.00  0.00     0.093 A 
ENDROOT
BRANCH   1  12
ATOM     12  O   UNL     1      84.007  55.295  48.807  1.00  0.00    -0.508 OA
ATOM     13  H   UNL     1      83.556  56.140  48.974  1.00  0.00     0.293 HD
ENDBRANCH   1  12
BRANCH  10  14
ATOM     14  O   UNL     1      84.199  57.429  44.611  1.00  0.00    -0.507 OA
ATOM     15  H   UNL     1      83.501  57.126  43.988  1.00  0.00     0.293 HD
ENDBRANCH  10  14
BRANCH   5  16
ATOM     16  C   UNL     1      87.477  51.874  43.609  1.00  0.00    -0.007 A 
ATOM     17  C   UNL     1      87.642  50.788  44.484  1.00  0.00     0.007 A 
ATOM     18  C   UNL     1      88.233  51.907  42.427  1.00  0.00     0.007 A 
ATOM     19  C   UNL     1      88.532  49.757  44.178  1.00  0.00     0.000 A 
ATOM     20  C   UNL     1      89.124  50.875  42.124  1.00  0.00     0.000 A 
ATOM     21  C   UNL     1      89.272  49.801  42.998  1.00  0.00     0.000 A 
ENDBRANCH   5  16
TORSDOF 3
ENDMDL
MODEL 8
REMARK VINA RESULT:    -7.553      3.631      6.238
REMARK INTER + INTRA:          -8.718
REMARK INTER:                  -8.402
REMARK INTRA:                  -0.315
REMARK UNBOUND:                -0.281
REMARK SMILES O=C1C[C@@H](c2ccccc2)Oc2cc(O)cc(O)c21
REMARK SMILES IDX 14 1 13 2 12 3 11 4 4 5 3 6 2 7 1 8 19 9 17 10 16 11 15 12
REMARK SMILES IDX 18 14 5 16 6 17 10 18 7 19 9 20 8 21
REMARK H PARENT 15 13 18 15
ROOT
ATOM      1  C   UNL     1      89.527  50.167  41.595  1.00  0.00     0.123 A 
ATOM      2  C   UNL     1      89.000  50.237  42.883  1.00  0.00     0.093 A 
ATOM      3  C   UNL     1      88.106  51.260  43.199  1.00  0.00     0.138 A 
ATOM      4  O   UNL     1      87.630  51.277  44.485  1.00  0.00    -0.484 OA
ATOM      5  C   UNL     1      87.178  52.578  44.899  1.00  0.00     0.211 C 
ATOM      6  C   UNL     1      86.113  53.111  43.952  1.00  0.00     0.131 C 
ATOM      7  C   UNL     1      86.714  53.200  42.579  1.00  0.00     0.174 C 
ATOM      8  O   UNL     1      86.364  54.035  41.748  1.00  0.00    -0.294 OA
ATOM      9  C   UNL     1      87.719  52.181  42.223  1.00  0.00     0.102 A 
ATOM     10  C   UNL     1      88.257  52.100  40.935  1.00  0.00     0.133 A 
ATOM     11  C   UNL     1      89.166  51.093  40.622  1.00  0.00     0.093 A 
ENDROOT
BRANCH   1  12
ATOM     12  O   UNL     1      90.412  49.191  41.246  1.00  0.00    -0.508 OA
ATOM     13  H   UNL     1      90.676  49.315  40.318  1.00  0.00     0.293 HD
ENDBRANCH   1  12
BRANCH  10  14
ATOM     14  O   UNL     1      87.926  52.971  39.932  1.00  0.00    -0.507 OA
ATOM     15  H   UNL     1      87.654  52.447  39.146  1.00  0.00     0.293 HD
ENDBRANCH  10  14
BRANCH   5  16
ATOM     16  C   UNL     1      86.635  52.481  46.313  1.00  0.00    -0.007 A 
ATOM     17  C   UNL     1      85.941  53.551  46.902  1.00  0.00     0.007 A 
ATOM     18  C   UNL     1      86.853  51.321  47.071  1.00  0.00     0.007 A 
ATOM     19  C   UNL     1      85.469  53.456  48.212  1.00  0.00     0.000 A 
ATOM     20  C   UNL     1      86.381  51.229  48.382  1.00  0.00     0.000 A 
ATOM     21  C   UNL     1      85.689  52.296  48.951  1.00  0.00     0.000 A 
ENDBRANCH   5  16
TORSDOF 3
ENDMDL
MODEL 9
REMARK VINA RESULT:    -7.538      1.377      2.075
REMARK INTER + INTRA:          -8.701
REMARK INTER:                  -8.385
REMARK INTRA:                  -0.316
REMARK UNBOUND:                -0.281
REMARK SMILES O=C1C[C@@H](c2ccccc2)Oc2cc(O)cc(O)c21
REMARK SMILES IDX 14 1 13 2 12 3 11 4 4 5 3 6 2 7 1 8 19 9 17 10 16 11 15 12
REMARK SMILES IDX 18 14 5 16 6 17 10 18 7 19 9 20 8 21
REMARK H PARENT 15 13 18 15
ROOT
ATOM      1  C   UNL     1      84.657  57.131  45.229  1.00  0.00     0.123 A 
ATOM      2  C   UNL     1      85.327  56.105  44.565  1.00  0.00     0.093 A 
ATOM      3  C   UNL     1      85.489  54.874  45.201  1.00  0.00     0.138 A 
ATOM      4  O   UNL     1      86.162  53.910  44.497  1.00  0.00    -0.484 OA
ATOM      5  C   UNL     1      86.755  52.909  45.342  1.00  0.00     0.211 C 
ATOM      6  C   UNL     1      85.706  52.256  46.230  1.00  0.00     0.131 C 
ATOM      7  C   UNL     1      85.083  53.326  47.078  1.00  0.00     0.174 C 
ATOM      8  O   UNL     1      84.638  53.115  48.204  1.00  0.00    -0.294 OA
ATOM      9  C   UNL     1      84.955  54.666  46.474  1.00  0.00     0.102 A 
ATOM     10  C   UNL     1      84.287  55.705  47.130  1.00  0.00     0.133 A 
ATOM     11  C   UNL     1      84.142  56.942  46.507  1.00  0.00     0.093 A 
ENDROOT
BRANCH   1  12
ATOM     12  O   UNL     1      84.485  58.354  44.650  1.00  0.00    -0.508 OA
ATOM     13  H   UNL     1      83.632  58.371  44.184  1.00  0.00     0.293 HD
ENDBRANCH   1  12
BRANCH  10  14
ATOM     14  O   UNL     1      83.744  55.572  48.379  1.00  0.00    -0.507 OA
ATOM     15  H   UNL     1      83.060  54.867  48.344  1.00  0.00     0.293 HD
ENDBRANCH  10  14
BRANCH   5  16
ATOM     16  C   UNL     1      87.436  51.871  44.470  1.00  0.00    -0.007 A 
ATOM     17  C   UNL     1      87.836  50.630  44.991  1.00  0.00     0.007 A 
ATOM     18  C   UNL     1      87.712  52.156  43.124  1.00  0.00     0.007 A 
ATOM     19  C   UNL     1      88.485  49.695  44.182  1.00  0.00     0.000 A 
ATOM     20  C   UNL     1      88.361  51.220  42.317  1.00  0.00     0.000 A 
ATOM     21  C   UNL     1      88.746  49.990  42.846  1.00  0.00     0.000 A 
ENDBRANCH   5  16
TORSDOF 3
ENDMDL
