MODEL 1
REMARK VINA RESULT:    -9.804      0.000      0.000
REMARK INTER + INTRA:         -15.559
REMARK INTER:                 -14.474
REMARK INTRA:                  -1.085
REMARK UNBOUND:                -0.883
REMARK SMILES COc1c(CC=C(C)C)cc(C2CC(=O)c3c(O)cc(OC(C)=O)cc3O2)cc1OC(C)=O
REMARK SMILES IDX 12 1 13 2 14 3 15 4 16 5 26 6 27 7 25 8 20 9 19 10 17 11
REMARK SMILES IDX 11 12 3 13 4 14 29 15 10 16 28 17 2 18 1 19 5 20 6 21 7 22
REMARK SMILES IDX 8 23 9 24 30 25 31 26 33 27 32 28 18 29 21 31 22 32 24 33
REMARK SMILES IDX 23 34
REMARK H PARENT 18 30
ROOT
ATOM      1  C   UNL     1      83.446  50.460  42.718  1.00  0.00     0.211 C 
ATOM      2  C   UNL     1      82.162  50.355  43.520  1.00  0.00     0.131 C 
ATOM      3  C   UNL     1      81.729  48.915  43.506  1.00  0.00     0.174 C 
ATOM      4  O   UNL     1      80.539  48.623  43.471  1.00  0.00    -0.294 OA
ATOM      5  C   UNL     1      82.818  47.904  43.584  1.00  0.00     0.102 A 
ATOM      6  C   UNL     1      84.140  48.366  43.506  1.00  0.00     0.138 A 
ATOM      7  O   UNL     1      84.483  49.682  43.333  1.00  0.00    -0.484 OA
ATOM      8  C   UNL     1      85.211  47.481  43.632  1.00  0.00     0.094 A 
ATOM      9  C   UNL     1      84.957  46.123  43.795  1.00  0.00     0.138 A 
ATOM     10  C   UNL     1      83.653  45.639  43.876  1.00  0.00     0.094 A 
ATOM     11  C   UNL     1      82.584  46.533  43.763  1.00  0.00     0.133 A 
ENDROOT
BRANCH   1  12
ATOM     12  C   UNL     1      83.905  51.904  42.628  1.00  0.00    -0.003 A 
ATOM     13  C   UNL     1      84.824  54.567  42.480  1.00  0.00     0.165 A 
ATOM     14  C   UNL     1      85.286  53.737  43.512  1.00  0.00     0.002 A 
ATOM     15  C   UNL     1      83.939  54.059  41.524  1.00  0.00     0.173 A 
ATOM     16  C   UNL     1      84.811  52.412  43.577  1.00  0.00     0.015 A 
ATOM     17  C   UNL     1      83.487  52.740  41.585  1.00  0.00     0.058 A 
BRANCH  13  18
ATOM     18  O   UNL     1      85.299  55.847  42.365  1.00  0.00    -0.493 OA
ATOM     19  C   UNL     1      84.469  56.756  43.092  1.00  0.00     0.278 C 
ENDBRANCH  13  18
BRANCH  14  20
ATOM     20  C   UNL     1      86.314  54.205  44.519  1.00  0.00     0.067 C 
BRANCH  20  21
ATOM     21  C   UNL     1      86.025  53.697  45.907  1.00  0.00    -0.023 C 
ATOM     22  C   UNL     1      85.886  54.408  47.045  1.00  0.00    -0.080 C 
ATOM     23  C   UNL     1      86.023  55.901  47.161  1.00  0.00     0.039 C 
ATOM     24  C   UNL     1      85.590  53.714  48.349  1.00  0.00     0.039 C 
ENDBRANCH  20  21
ENDBRANCH  14  20
BRANCH  15  25
ATOM     25  O   UNL     1      83.576  54.843  40.424  1.00  0.00    -0.423 OA
BRANCH  25  26
ATOM     26  C   UNL     1      84.455  54.737  39.355  1.00  0.00     0.308 C 
ATOM     27  O   UNL     1      85.478  54.068  39.304  1.00  0.00    -0.252 OA
ATOM     28  C   UNL     1      83.941  55.579  38.225  1.00  0.00     0.139 C 
ENDBRANCH  25  26
ENDBRANCH  15  25
ENDBRANCH   1  12
BRANCH  11  29
ATOM     29  O   UNL     1      81.313  46.043  43.852  1.00  0.00    -0.507 OA
ATOM     30  H   UNL     1      80.692  46.628  43.389  1.00  0.00     0.293 HD
ENDBRANCH  11  29
BRANCH   9  31
ATOM     31  O   UNL     1      86.068  45.281  43.957  1.00  0.00    -0.426 OA
BRANCH  31  32
ATOM     32  C   UNL     1      86.581  44.697  42.802  1.00  0.00     0.308 C 
ATOM     33  O   UNL     1      86.009  43.905  42.067  1.00  0.00    -0.252 OA
ATOM     34  C   UNL     1      87.979  45.197  42.588  1.00  0.00     0.139 C 
ENDBRANCH  31  32
ENDBRANCH   9  31
TORSDOF 9
ENDMDL
MODEL 2
REMARK VINA RESULT:    -9.652      2.512      4.131
REMARK INTER + INTRA:         -15.331
REMARK INTER:                 -14.182
REMARK INTRA:                  -1.149
REMARK UNBOUND:                -0.883
REMARK SMILES COc1c(CC=C(C)C)cc(C2CC(=O)c3c(O)cc(OC(C)=O)cc3O2)cc1OC(C)=O
REMARK SMILES IDX 12 1 13 2 14 3 15 4 16 5 26 6 27 7 25 8 20 9 19 10 17 11
REMARK SMILES IDX 11 12 3 13 4 14 29 15 10 16 28 17 2 18 1 19 5 20 6 21 7 22
REMARK SMILES IDX 8 23 9 24 30 25 31 26 33 27 32 28 18 29 21 31 22 32 24 33
REMARK SMILES IDX 23 34
REMARK H PARENT 18 30
ROOT
ATOM      1  C   UNL     1      87.598  51.511  43.337  1.00  0.00     0.211 C 
ATOM      2  C   UNL     1      88.589  51.668  42.199  1.00  0.00     0.131 C 
ATOM      3  C   UNL     1      89.285  50.349  42.010  1.00  0.00     0.174 C 
ATOM      4  O   UNL     1      90.467  50.308  41.690  1.00  0.00    -0.294 OA
ATOM      5  C   UNL     1      88.443  49.134  42.190  1.00  0.00     0.102 A 
ATOM      6  C   UNL     1      87.137  49.314  42.665  1.00  0.00     0.138 A 
ATOM      7  O   UNL     1      86.603  50.532  43.000  1.00  0.00    -0.484 OA
ATOM      8  C   UNL     1      86.273  48.227  42.800  1.00  0.00     0.094 A 
ATOM      9  C   UNL     1      86.733  46.949  42.498  1.00  0.00     0.138 A 
ATOM     10  C   UNL     1      88.027  46.745  42.023  1.00  0.00     0.094 A 
ATOM     11  C   UNL     1      88.884  47.840  41.877  1.00  0.00     0.133 A 
ENDROOT
BRANCH   1  12
ATOM     12  C   UNL     1      86.907  52.830  43.632  1.00  0.00    -0.003 A 
ATOM     13  C   UNL     1      85.675  55.296  44.229  1.00  0.00     0.165 A 
ATOM     14  C   UNL     1      86.262  54.553  45.264  1.00  0.00     0.002 A 
ATOM     15  C   UNL     1      85.733  54.822  42.914  1.00  0.00     0.173 A 
ATOM     16  C   UNL     1      86.866  53.319  44.951  1.00  0.00     0.015 A 
ATOM     17  C   UNL     1      86.349  53.607  42.610  1.00  0.00     0.058 A 
BRANCH  13  18
ATOM     18  O   UNL     1      85.117  56.519  44.494  1.00  0.00    -0.493 OA
ATOM     19  C   UNL     1      86.067  57.563  44.266  1.00  0.00     0.278 C 
ENDBRANCH  13  18
BRANCH  14  20
ATOM     20  C   UNL     1      86.310  55.060  46.689  1.00  0.00     0.067 C 
BRANCH  20  21
ATOM     21  C   UNL     1      85.740  54.068  47.668  1.00  0.00    -0.023 C 
ATOM     22  C   UNL     1      84.478  53.988  48.136  1.00  0.00    -0.080 C 
ATOM     23  C   UNL     1      83.356  54.923  47.780  1.00  0.00     0.039 C 
ATOM     24  C   UNL     1      84.093  52.910  49.116  1.00  0.00     0.039 C 
ENDBRANCH  20  21
ENDBRANCH  14  20
BRANCH  15  25
ATOM     25  O   UNL     1      85.263  55.618  41.865  1.00  0.00    -0.423 OA
BRANCH  25  26
ATOM     26  C   UNL     1      84.513  54.915  40.931  1.00  0.00     0.308 C 
ATOM     27  O   UNL     1      84.858  54.585  39.805  1.00  0.00    -0.252 OA
ATOM     28  C   UNL     1      83.177  54.593  41.532  1.00  0.00     0.139 C 
ENDBRANCH  25  26
ENDBRANCH  15  25
ENDBRANCH   1  12
BRANCH  11  29
ATOM     29  O   UNL     1      90.146  47.622  41.404  1.00  0.00    -0.507 OA
ATOM     30  H   UNL     1      90.565  46.890  41.884  1.00  0.00     0.293 HD
ENDBRANCH  11  29
BRANCH   9  31
ATOM     31  O   UNL     1      85.814  45.896  42.612  1.00  0.00    -0.426 OA
BRANCH  31  32
ATOM     32  C   UNL     1      85.681  45.318  43.871  1.00  0.00     0.308 C 
ATOM     33  O   UNL     1      85.036  45.757  44.813  1.00  0.00    -0.252 OA
ATOM     34  C   UNL     1      86.469  44.042  43.902  1.00  0.00     0.139 C 
ENDBRANCH  31  32
ENDBRANCH   9  31
TORSDOF 9
ENDMDL
MODEL 3
REMARK VINA RESULT:    -9.433      1.590      3.599
REMARK INTER + INTRA:         -15.004
REMARK INTER:                 -14.029
REMARK INTRA:                  -0.975
REMARK UNBOUND:                -0.883
REMARK SMILES COc1c(CC=C(C)C)cc(C2CC(=O)c3c(O)cc(OC(C)=O)cc3O2)cc1OC(C)=O
REMARK SMILES IDX 12 1 13 2 14 3 15 4 16 5 26 6 27 7 25 8 20 9 19 10 17 11
REMARK SMILES IDX 11 12 3 13 4 14 29 15 10 16 28 17 2 18 1 19 5 20 6 21 7 22
REMARK SMILES IDX 8 23 9 24 30 25 31 26 33 27 32 28 18 29 21 31 22 32 24 33
REMARK SMILES IDX 23 34
REMARK H PARENT 18 30
ROOT
ATOM      1  C   UNL     1      85.235  51.108  43.933  1.00  0.00     0.211 C 
ATOM      2  C   UNL     1      86.297  50.361  43.147  1.00  0.00     0.131 C 
ATOM      3  C   UNL     1      86.087  48.890  43.375  1.00  0.00     0.174 C 
ATOM      4  O   UNL     1      87.045  48.128  43.445  1.00  0.00    -0.294 OA
ATOM      5  C   UNL     1      84.672  48.436  43.460  1.00  0.00     0.102 A 
ATOM      6  C   UNL     1      83.674  49.421  43.477  1.00  0.00     0.138 A 
ATOM      7  O   UNL     1      83.926  50.769  43.451  1.00  0.00    -0.484 OA
ATOM      8  C   UNL     1      82.325  49.067  43.494  1.00  0.00     0.094 A 
ATOM      9  C   UNL     1      81.975  47.720  43.537  1.00  0.00     0.138 A 
ATOM     10  C   UNL     1      82.948  46.723  43.520  1.00  0.00     0.094 A 
ATOM     11  C   UNL     1      84.298  47.085  43.489  1.00  0.00     0.133 A 
ENDROOT
BRANCH   1  12
ATOM     12  C   UNL     1      85.430  52.608  43.806  1.00  0.00    -0.003 A 
ATOM     13  C   UNL     1      85.851  55.390  43.613  1.00  0.00     0.165 A 
ATOM     14  C   UNL     1      86.090  54.742  44.834  1.00  0.00     0.002 A 
ATOM     15  C   UNL     1      85.436  54.648  42.502  1.00  0.00     0.173 A 
ATOM     16  C   UNL     1      85.867  53.353  44.917  1.00  0.00     0.015 A 
ATOM     17  C   UNL     1      85.235  53.269  42.588  1.00  0.00     0.058 A 
BRANCH  13  18
ATOM     18  O   UNL     1      86.099  56.732  43.488  1.00  0.00    -0.493 OA
ATOM     19  C   UNL     1      84.897  57.483  43.678  1.00  0.00     0.278 C 
ENDBRANCH  13  18
BRANCH  14  20
ATOM     20  C   UNL     1      86.627  55.479  46.042  1.00  0.00     0.067 C 
BRANCH  20  21
ATOM     21  C   UNL     1      85.951  55.053  47.318  1.00  0.00    -0.023 C 
ATOM     22  C   UNL     1      84.691  55.314  47.722  1.00  0.00    -0.080 C 
ATOM     23  C   UNL     1      83.684  56.133  46.964  1.00  0.00     0.039 C 
ATOM     24  C   UNL     1      84.188  54.790  49.043  1.00  0.00     0.039 C 
ENDBRANCH  20  21
ENDBRANCH  14  20
BRANCH  15  25
ATOM     25  O   UNL     1      85.320  55.267  41.254  1.00  0.00    -0.423 OA
BRANCH  25  26
ATOM     26  C   UNL     1      84.437  54.624  40.398  1.00  0.00     0.308 C 
ATOM     27  O   UNL     1      84.709  54.037  39.360  1.00  0.00    -0.252 OA
ATOM     28  C   UNL     1      83.051  54.743  40.960  1.00  0.00     0.139 C 
ENDBRANCH  25  26
ENDBRANCH  15  25
ENDBRANCH   1  12
BRANCH  11  29
ATOM     29  O   UNL     1      85.237  46.095  43.466  1.00  0.00    -0.507 OA
ATOM     30  H   UNL     1      86.098  46.439  43.754  1.00  0.00     0.293 HD
ENDBRANCH  11  29
BRANCH   9  31
ATOM     31  O   UNL     1      80.606  47.417  43.513  1.00  0.00    -0.426 OA
BRANCH  31  32
ATOM     32  C   UNL     1      79.973  47.288  44.746  1.00  0.00     0.308 C 
ATOM     33  O   UNL     1      79.652  48.195  45.501  1.00  0.00    -0.252 OA
ATOM     34  C   UNL     1      79.740  45.832  45.019  1.00  0.00     0.139 C 
ENDBRANCH  31  32
ENDBRANCH   9  31
TORSDOF 9
ENDMDL
MODEL 4
REMARK VINA RESULT:    -9.356      3.074      8.850
REMARK INTER + INTRA:         -14.888
REMARK INTER:                 -13.847
REMARK INTRA:                  -1.041
REMARK UNBOUND:                -0.883
REMARK SMILES COc1c(CC=C(C)C)cc(C2CC(=O)c3c(O)cc(OC(C)=O)cc3O2)cc1OC(C)=O
REMARK SMILES IDX 12 1 13 2 14 3 15 4 16 5 26 6 27 7 25 8 20 9 19 10 17 11
REMARK SMILES IDX 11 12 3 13 4 14 29 15 10 16 28 17 2 18 1 19 5 20 6 21 7 22
REMARK SMILES IDX 8 23 9 24 30 25 31 26 33 27 32 28 18 29 21 31 22 32 24 33
REMARK SMILES IDX 23 34
REMARK H PARENT 18 30
ROOT
ATOM      1  C   UNL     1      86.945  51.090  45.231  1.00  0.00     0.211 C 
ATOM      2  C   UNL     1      85.963  50.869  46.366  1.00  0.00     0.131 C 
ATOM      3  C   UNL     1      85.998  52.086  47.248  1.00  0.00     0.174 C 
ATOM      4  O   UNL     1      85.867  51.979  48.462  1.00  0.00    -0.294 OA
ATOM      5  C   UNL     1      86.151  53.393  46.553  1.00  0.00     0.102 A 
ATOM      6  C   UNL     1      86.404  53.369  45.174  1.00  0.00     0.138 A 
ATOM      7  O   UNL     1      86.547  52.220  44.440  1.00  0.00    -0.484 OA
ATOM      8  C   UNL     1      86.498  54.556  44.447  1.00  0.00     0.094 A 
ATOM      9  C   UNL     1      86.382  55.773  45.112  1.00  0.00     0.138 A 
ATOM     10  C   UNL     1      86.131  55.823  46.482  1.00  0.00     0.094 A 
ATOM     11  C   UNL     1      86.023  54.630  47.202  1.00  0.00     0.133 A 
ENDROOT
BRANCH   1  12
ATOM     12  C   UNL     1      87.016  49.866  44.337  1.00  0.00    -0.003 A 
ATOM     13  C   UNL     1      87.080  47.602  42.656  1.00  0.00     0.165 A 
ATOM     14  C   UNL     1      85.925  47.868  43.407  1.00  0.00     0.002 A 
ATOM     15  C   UNL     1      88.171  48.474  42.726  1.00  0.00     0.173 A 
ATOM     16  C   UNL     1      85.912  48.998  44.248  1.00  0.00     0.015 A 
ATOM     17  C   UNL     1      88.144  49.602  43.549  1.00  0.00     0.058 A 
BRANCH  13  18
ATOM     18  O   UNL     1      87.108  46.535  41.797  1.00  0.00    -0.493 OA
ATOM     19  C   UNL     1      87.472  45.341  42.493  1.00  0.00     0.278 C 
ENDBRANCH  13  18
BRANCH  14  20
ATOM     20  C   UNL     1      84.683  47.011  43.300  1.00  0.00     0.067 C 
BRANCH  20  21
ATOM     21  C   UNL     1      83.425  47.836  43.222  1.00  0.00    -0.023 C 
ATOM     22  C   UNL     1      82.193  47.523  43.670  1.00  0.00    -0.080 C 
ATOM     23  C   UNL     1      81.810  46.231  44.337  1.00  0.00     0.039 C 
ATOM     24  C   UNL     1      81.050  48.492  43.505  1.00  0.00     0.039 C 
ENDBRANCH  20  21
ENDBRANCH  14  20
BRANCH  15  25
ATOM     25  O   UNL     1      89.272  48.283  41.885  1.00  0.00    -0.423 OA
BRANCH  25  26
ATOM     26  C   UNL     1      90.392  47.796  42.544  1.00  0.00     0.308 C 
ATOM     27  O   UNL     1      90.615  46.637  42.866  1.00  0.00    -0.252 OA
ATOM     28  C   UNL     1      91.333  48.937  42.799  1.00  0.00     0.139 C 
ENDBRANCH  25  26
ENDBRANCH  15  25
ENDBRANCH   1  12
BRANCH  11  29
ATOM     29  O   UNL     1      85.769  54.697  48.541  1.00  0.00    -0.507 OA
ATOM     30  H   UNL     1      86.592  54.848  49.034  1.00  0.00     0.293 HD
ENDBRANCH  11  29
BRANCH   9  31
ATOM     31  O   UNL     1      86.445  56.936  44.330  1.00  0.00    -0.426 OA
BRANCH  31  32
ATOM     32  C   UNL     1      85.251  57.625  44.140  1.00  0.00     0.308 C 
ATOM     33  O   UNL     1      84.913  58.667  44.684  1.00  0.00    -0.252 OA
ATOM     34  C   UNL     1      84.416  56.877  43.142  1.00  0.00     0.139 C 
ENDBRANCH  31  32
ENDBRANCH   9  31
TORSDOF 9
ENDMDL
MODEL 5
REMARK VINA RESULT:    -9.355      2.838      5.728
REMARK INTER + INTRA:         -14.887
REMARK INTER:                 -13.865
REMARK INTRA:                  -1.021
REMARK UNBOUND:                -0.883
REMARK SMILES COc1c(CC=C(C)C)cc(C2CC(=O)c3c(O)cc(OC(C)=O)cc3O2)cc1OC(C)=O
REMARK SMILES IDX 12 1 13 2 14 3 15 4 16 5 26 6 27 7 25 8 20 9 19 10 17 11
REMARK SMILES IDX 11 12 3 13 4 14 29 15 10 16 28 17 2 18 1 19 5 20 6 21 7 22
REMARK SMILES IDX 8 23 9 24 30 25 31 26 33 27 32 28 18 29 21 31 22 32 24 33
REMARK SMILES IDX 23 34
REMARK H PARENT 18 30
ROOT
ATOM      1  C   UNL     1      84.458  49.981  43.575  1.00  0.00     0.211 C 
ATOM      2  C   UNL     1      84.744  48.542  43.185  1.00  0.00     0.131 C 
ATOM      3  C   UNL     1      83.656  47.684  43.768  1.00  0.00     0.174 C 
ATOM      4  O   UNL     1      83.906  46.557  44.181  1.00  0.00    -0.294 OA
ATOM      5  C   UNL     1      82.287  48.269  43.762  1.00  0.00     0.102 A 
ATOM      6  C   UNL     1      82.155  49.607  43.365  1.00  0.00     0.138 A 
ATOM      7  O   UNL     1      83.209  50.411  43.014  1.00  0.00    -0.484 OA
ATOM      8  C   UNL     1      80.896  50.202  43.278  1.00  0.00     0.094 A 
ATOM      9  C   UNL     1      79.768  49.466  43.630  1.00  0.00     0.138 A 
ATOM     10  C   UNL     1      79.874  48.134  44.027  1.00  0.00     0.094 A 
ATOM     11  C   UNL     1      81.137  47.540  44.099  1.00  0.00     0.133 A 
ENDROOT
BRANCH   1  12
ATOM     12  C   UNL     1      85.560  50.900  43.079  1.00  0.00    -0.003 A 
ATOM     13  C   UNL     1      87.637  52.551  42.124  1.00  0.00     0.165 A 
ATOM     14  C   UNL     1      87.934  51.245  42.541  1.00  0.00     0.002 A 
ATOM     15  C   UNL     1      86.316  53.008  42.158  1.00  0.00     0.173 A 
ATOM     16  C   UNL     1      86.887  50.435  43.024  1.00  0.00     0.015 A 
ATOM     17  C   UNL     1      85.280  52.193  42.621  1.00  0.00     0.058 A 
BRANCH  13  18
ATOM     18  O   UNL     1      88.626  53.349  41.610  1.00  0.00    -0.493 OA
ATOM     19  C   UNL     1      88.945  52.954  40.274  1.00  0.00     0.278 C 
ENDBRANCH  13  18
BRANCH  14  20
ATOM     20  C   UNL     1      89.329  50.668  42.439  1.00  0.00     0.067 C 
BRANCH  20  21
ATOM     21  C   UNL     1      89.317  49.206  42.081  1.00  0.00    -0.023 C 
ATOM     22  C   UNL     1      90.124  48.227  42.538  1.00  0.00    -0.080 C 
ATOM     23  C   UNL     1      91.254  48.413  43.512  1.00  0.00     0.039 C 
ATOM     24  C   UNL     1      89.951  46.808  42.061  1.00  0.00     0.039 C 
ENDBRANCH  20  21
ENDBRANCH  14  20
BRANCH  15  25
ATOM     25  O   UNL     1      85.997  54.261  41.626  1.00  0.00    -0.423 OA
BRANCH  25  26
ATOM     26  C   UNL     1      85.252  54.191  40.457  1.00  0.00     0.308 C 
ATOM     27  O   UNL     1      85.603  53.720  39.384  1.00  0.00    -0.252 OA
ATOM     28  C   UNL     1      83.898  54.782  40.714  1.00  0.00     0.139 C 
ENDBRANCH  25  26
ENDBRANCH  15  25
ENDBRANCH   1  12
BRANCH  11  29
ATOM     29  O   UNL     1      81.221  46.232  44.482  1.00  0.00    -0.507 OA
ATOM     30  H   UNL     1      82.059  45.845  44.181  1.00  0.00     0.293 HD
ENDBRANCH  11  29
BRANCH   9  31
ATOM     31  O   UNL     1      78.524  50.097  43.487  1.00  0.00    -0.426 OA
BRANCH  31  32
ATOM     32  C   UNL     1      77.830  50.379  44.660  1.00  0.00     0.308 C 
ATOM     33  O   UNL     1      78.139  50.040  45.793  1.00  0.00    -0.252 OA
ATOM     34  C   UNL     1      76.611  51.184  44.317  1.00  0.00     0.139 C 
ENDBRANCH  31  32
ENDBRANCH   9  31
TORSDOF 9
ENDMDL
MODEL 6
REMARK VINA RESULT:    -9.345      3.501      8.425
REMARK INTER + INTRA:         -14.872
REMARK INTER:                 -13.616
REMARK INTRA:                  -1.256
REMARK UNBOUND:                -0.883
REMARK SMILES COc1c(CC=C(C)C)cc(C2CC(=O)c3c(O)cc(OC(C)=O)cc3O2)cc1OC(C)=O
REMARK SMILES IDX 12 1 13 2 14 3 15 4 16 5 26 6 27 7 25 8 20 9 19 10 17 11
REMARK SMILES IDX 11 12 3 13 4 14 29 15 10 16 28 17 2 18 1 19 5 20 6 21 7 22
REMARK SMILES IDX 8 23 9 24 30 25 31 26 33 27 32 28 18 29 21 31 22 32 24 33
REMARK SMILES IDX 23 34
REMARK H PARENT 18 30
ROOT
ATOM      1  C   UNL     1      87.064  51.663  45.157  1.00  0.00     0.211 C 
ATOM      2  C   UNL     1      86.405  50.959  46.329  1.00  0.00     0.131 C 
ATOM      3  C   UNL     1      86.015  52.007  47.334  1.00  0.00     0.174 C 
ATOM      4  O   UNL     1      86.079  51.771  48.535  1.00  0.00    -0.294 OA
ATOM      5  C   UNL     1      85.515  53.293  46.777  1.00  0.00     0.102 A 
ATOM      6  C   UNL     1      85.597  53.475  45.389  1.00  0.00     0.138 A 
ATOM      7  O   UNL     1      86.135  52.556  44.525  1.00  0.00    -0.484 OA
ATOM      8  C   UNL     1      85.093  54.631  44.792  1.00  0.00     0.094 A 
ATOM      9  C   UNL     1      84.543  55.628  45.593  1.00  0.00     0.138 A 
ATOM     10  C   UNL     1      84.449  55.469  46.975  1.00  0.00     0.094 A 
ATOM     11  C   UNL     1      84.944  54.303  47.565  1.00  0.00     0.133 A 
ENDROOT
BRANCH   1  12
ATOM     12  C   UNL     1      87.551  50.656  44.131  1.00  0.00    -0.003 A 
ATOM     13  C   UNL     1      88.388  48.763  42.216  1.00  0.00     0.165 A 
ATOM     14  C   UNL     1      87.385  48.415  43.132  1.00  0.00     0.002 A 
ATOM     15  C   UNL     1      88.940  50.048  42.243  1.00  0.00     0.173 A 
ATOM     16  C   UNL     1      86.983  49.370  44.088  1.00  0.00     0.015 A 
ATOM     17  C   UNL     1      88.524  50.994  43.182  1.00  0.00     0.058 A 
BRANCH  13  18
ATOM     18  O   UNL     1      88.771  47.872  41.247  1.00  0.00    -0.493 OA
ATOM     19  C   UNL     1      89.933  47.150  41.662  1.00  0.00     0.278 C 
ENDBRANCH  13  18
BRANCH  14  20
ATOM     20  C   UNL     1      86.688  47.073  43.089  1.00  0.00     0.067 C 
BRANCH  20  21
ATOM     21  C   UNL     1      85.199  47.196  43.275  1.00  0.00    -0.023 C 
ATOM     22  C   UNL     1      84.294  46.210  43.442  1.00  0.00    -0.080 C 
ATOM     23  C   UNL     1      84.601  44.738  43.451  1.00  0.00     0.039 C 
ATOM     24  C   UNL     1      82.834  46.535  43.620  1.00  0.00     0.039 C 
ENDBRANCH  20  21
ENDBRANCH  14  20
BRANCH  15  25
ATOM     25  O   UNL     1      89.847  50.438  41.253  1.00  0.00    -0.423 OA
BRANCH  25  26
ATOM     26  C   UNL     1      89.353  51.422  40.408  1.00  0.00     0.308 C 
ATOM     27  O   UNL     1      88.391  51.337  39.658  1.00  0.00    -0.252 OA
ATOM     28  C   UNL     1      90.192  52.656  40.566  1.00  0.00     0.139 C 
ENDBRANCH  25  26
ENDBRANCH  15  25
ENDBRANCH   1  12
BRANCH  11  29
ATOM     29  O   UNL     1      84.838  54.162  48.919  1.00  0.00    -0.507 OA
ATOM     30  H   UNL     1      85.288  54.893  49.371  1.00  0.00     0.293 HD
ENDBRANCH  11  29
BRANCH   9  31
ATOM     31  O   UNL     1      84.015  56.751  44.941  1.00  0.00    -0.426 OA
BRANCH  31  32
ATOM     32  C   UNL     1      84.930  57.693  44.482  1.00  0.00     0.308 C 
ATOM     33  O   UNL     1      85.385  57.779  43.350  1.00  0.00    -0.252 OA
ATOM     34  C   UNL     1      85.288  58.611  45.613  1.00  0.00     0.139 C 
ENDBRANCH  31  32
ENDBRANCH   9  31
TORSDOF 9
ENDMDL
MODEL 7
REMARK VINA RESULT:    -9.318      3.836      6.483
REMARK INTER + INTRA:         -14.831
REMARK INTER:                 -13.863
REMARK INTRA:                  -0.968
REMARK UNBOUND:                -0.883
REMARK SMILES COc1c(CC=C(C)C)cc(C2CC(=O)c3c(O)cc(OC(C)=O)cc3O2)cc1OC(C)=O
REMARK SMILES IDX 12 1 13 2 14 3 15 4 16 5 26 6 27 7 25 8 20 9 19 10 17 11
REMARK SMILES IDX 11 12 3 13 4 14 29 15 10 16 28 17 2 18 1 19 5 20 6 21 7 22
REMARK SMILES IDX 8 23 9 24 30 25 31 26 33 27 32 28 18 29 21 31 22 32 24 33
REMARK SMILES IDX 23 34
REMARK H PARENT 18 30
ROOT
ATOM      1  C   UNL     1      83.947  48.407  43.812  1.00  0.00     0.211 C 
ATOM      2  C   UNL     1      83.668  47.027  43.246  1.00  0.00     0.131 C 
ATOM      3  C   UNL     1      82.275  46.637  43.655  1.00  0.00     0.174 C 
ATOM      4  O   UNL     1      82.008  45.471  43.924  1.00  0.00    -0.294 OA
ATOM      5  C   UNL     1      81.265  47.730  43.662  1.00  0.00     0.102 A 
ATOM      6  C   UNL     1      81.722  49.037  43.443  1.00  0.00     0.138 A 
ATOM      7  O   UNL     1      83.039  49.368  43.255  1.00  0.00    -0.484 OA
ATOM      8  C   UNL     1      80.823  50.103  43.376  1.00  0.00     0.094 A 
ATOM      9  C   UNL     1      79.466  49.864  43.571  1.00  0.00     0.138 A 
ATOM     10  C   UNL     1      78.988  48.573  43.789  1.00  0.00     0.094 A 
ATOM     11  C   UNL     1      79.891  47.508  43.841  1.00  0.00     0.133 A 
ENDROOT
BRANCH   1  12
ATOM     12  C   UNL     1      85.369  48.837  43.498  1.00  0.00    -0.003 A 
ATOM     13  C   UNL     1      88.021  49.647  42.985  1.00  0.00     0.165 A 
ATOM     14  C   UNL     1      87.281  50.308  43.977  1.00  0.00     0.002 A 
ATOM     15  C   UNL     1      87.449  48.581  42.285  1.00  0.00     0.173 A 
ATOM     16  C   UNL     1      85.954  49.897  44.216  1.00  0.00     0.015 A 
ATOM     17  C   UNL     1      86.139  48.168  42.540  1.00  0.00     0.058 A 
BRANCH  13  18
ATOM     18  O   UNL     1      89.328  49.995  42.758  1.00  0.00    -0.493 OA
ATOM     19  C   UNL     1      89.428  50.846  41.614  1.00  0.00     0.278 C 
ENDBRANCH  13  18
BRANCH  14  20
ATOM     20  C   UNL     1      87.880  51.406  44.828  1.00  0.00     0.067 C 
BRANCH  20  21
ATOM     21  C   UNL     1      87.080  51.659  46.079  1.00  0.00    -0.023 C 
ATOM     22  C   UNL     1      87.238  51.104  47.297  1.00  0.00    -0.080 C 
ATOM     23  C   UNL     1      88.264  50.065  47.655  1.00  0.00     0.039 C 
ATOM     24  C   UNL     1      86.334  51.494  48.438  1.00  0.00     0.039 C 
ENDBRANCH  20  21
ENDBRANCH  14  20
BRANCH  15  25
ATOM     25  O   UNL     1      88.224  47.839  41.387  1.00  0.00    -0.423 OA
BRANCH  25  26
ATOM     26  C   UNL     1      88.628  46.610  41.890  1.00  0.00     0.308 C 
ATOM     27  O   UNL     1      87.938  45.611  42.042  1.00  0.00    -0.252 OA
ATOM     28  C   UNL     1      90.090  46.682  42.216  1.00  0.00     0.139 C 
ENDBRANCH  25  26
ENDBRANCH  15  25
ENDBRANCH   1  12
BRANCH  11  29
ATOM     29  O   UNL     1      79.404  46.249  44.049  1.00  0.00    -0.507 OA
ATOM     30  H   UNL     1      78.447  46.279  44.207  1.00  0.00     0.293 HD
ENDBRANCH  11  29
BRANCH   9  31
ATOM     31  O   UNL     1      78.602  50.962  43.454  1.00  0.00    -0.426 OA
BRANCH  31  32
ATOM     32  C   UNL     1      77.546  51.023  44.359  1.00  0.00     0.308 C 
ATOM     33  O   UNL     1      77.551  50.627  45.516  1.00  0.00    -0.252 OA
ATOM     34  C   UNL     1      76.369  51.664  43.686  1.00  0.00     0.139 C 
ENDBRANCH  31  32
ENDBRANCH   9  31
TORSDOF 9
ENDMDL
MODEL 8
REMARK VINA RESULT:    -9.237      2.858      5.812
REMARK INTER + INTRA:         -14.710
REMARK INTER:                 -13.416
REMARK INTRA:                  -1.294
REMARK UNBOUND:                -0.883
REMARK SMILES COc1c(CC=C(C)C)cc(C2CC(=O)c3c(O)cc(OC(C)=O)cc3O2)cc1OC(C)=O
REMARK SMILES IDX 12 1 13 2 14 3 15 4 16 5 26 6 27 7 25 8 20 9 19 10 17 11
REMARK SMILES IDX 11 12 3 13 4 14 29 15 10 16 28 17 2 18 1 19 5 20 6 21 7 22
REMARK SMILES IDX 8 23 9 24 30 25 31 26 33 27 32 28 18 29 21 31 22 32 24 33
REMARK SMILES IDX 23 34
REMARK H PARENT 18 30
ROOT
ATOM      1  C   UNL     1      87.448  51.365  43.979  1.00  0.00     0.211 C 
ATOM      2  C   UNL     1      88.252  51.759  42.753  1.00  0.00     0.131 C 
ATOM      3  C   UNL     1      88.994  50.540  42.279  1.00  0.00     0.174 C 
ATOM      4  O   UNL     1      90.117  50.643  41.799  1.00  0.00    -0.294 OA
ATOM      5  C   UNL     1      88.265  49.247  42.389  1.00  0.00     0.102 A 
ATOM      6  C   UNL     1      87.033  49.251  43.058  1.00  0.00     0.138 A 
ATOM      7  O   UNL     1      86.478  50.363  43.639  1.00  0.00    -0.484 OA
ATOM      8  C   UNL     1      86.267  48.088  43.146  1.00  0.00     0.094 A 
ATOM      9  C   UNL     1      86.758  46.906  42.599  1.00  0.00     0.138 A 
ATOM     10  C   UNL     1      87.980  46.877  41.928  1.00  0.00     0.094 A 
ATOM     11  C   UNL     1      88.735  48.049  41.831  1.00  0.00     0.133 A 
ENDROOT
BRANCH   1  12
ATOM     12  C   UNL     1      86.726  52.568  44.557  1.00  0.00    -0.003 A 
ATOM     13  C   UNL     1      85.332  54.794  45.584  1.00  0.00     0.165 A 
ATOM     14  C   UNL     1      85.324  54.557  44.201  1.00  0.00     0.002 A 
ATOM     15  C   UNL     1      86.003  53.913  46.437  1.00  0.00     0.173 A 
ATOM     16  C   UNL     1      86.033  53.446  43.703  1.00  0.00     0.015 A 
ATOM     17  C   UNL     1      86.688  52.803  45.937  1.00  0.00     0.058 A 
BRANCH  13  18
ATOM     18  O   UNL     1      84.618  55.843  46.104  1.00  0.00    -0.493 OA
ATOM     19  C   UNL     1      85.445  57.003  46.221  1.00  0.00     0.278 C 
ENDBRANCH  13  18
BRANCH  14  20
ATOM     20  C   UNL     1      84.539  55.425  43.242  1.00  0.00     0.067 C 
BRANCH  20  21
ATOM     21  C   UNL     1      84.883  55.142  41.804  1.00  0.00    -0.023 C 
ATOM     22  C   UNL     1      84.072  54.695  40.824  1.00  0.00    -0.080 C 
ATOM     23  C   UNL     1      82.617  54.353  40.985  1.00  0.00     0.039 C 
ATOM     24  C   UNL     1      84.605  54.476  39.431  1.00  0.00     0.039 C 
ENDBRANCH  20  21
ENDBRANCH  14  20
BRANCH  15  25
ATOM     25  O   UNL     1      85.908  54.074  47.822  1.00  0.00    -0.423 OA
BRANCH  25  26
ATOM     26  C   UNL     1      84.959  53.248  48.410  1.00  0.00     0.308 C 
ATOM     27  O   UNL     1      83.744  53.383  48.382  1.00  0.00    -0.252 OA
ATOM     28  C   UNL     1      85.666  52.117  49.096  1.00  0.00     0.139 C 
ENDBRANCH  25  26
ENDBRANCH  15  25
ENDBRANCH   1  12
BRANCH  11  29
ATOM     29  O   UNL     1      89.926  48.004  41.165  1.00  0.00    -0.507 OA
ATOM     30  H   UNL     1      89.787  48.145  40.215  1.00  0.00     0.293 HD
ENDBRANCH  11  29
BRANCH   9  31
ATOM     31  O   UNL     1      85.933  45.775  42.679  1.00  0.00    -0.426 OA
BRANCH  31  32
ATOM     32  C   UNL     1      85.862  45.141  43.916  1.00  0.00     0.308 C 
ATOM     33  O   UNL     1      85.165  45.468  44.866  1.00  0.00    -0.252 OA
ATOM     34  C   UNL     1      86.795  43.966  43.911  1.00  0.00     0.139 C 
ENDBRANCH  31  32
ENDBRANCH   9  31
TORSDOF 9
ENDMDL
MODEL 9
REMARK VINA RESULT:    -9.169      2.252      8.373
REMARK INTER + INTRA:         -14.609
REMARK INTER:                 -13.726
REMARK INTRA:                  -0.883
REMARK UNBOUND:                -0.883
REMARK SMILES COc1c(CC=C(C)C)cc(C2CC(=O)c3c(O)cc(OC(C)=O)cc3O2)cc1OC(C)=O
REMARK SMILES IDX 12 1 13 2 14 3 15 4 16 5 26 6 27 7 25 8 20 9 19 10 17 11
REMARK SMILES IDX 11 12 3 13 4 14 29 15 10 16 28 17 2 18 1 19 5 20 6 21 7 22
REMARK SMILES IDX 8 23 9 24 30 25 31 26 33 27 32 28 18 29 21 31 22 32 24 33
REMARK SMILES IDX 23 34
REMARK H PARENT 18 30
ROOT
ATOM      1  C   UNL     1      85.844  50.838  43.841  1.00  0.00     0.211 C 
ATOM      2  C   UNL     1      85.043  51.057  45.112  1.00  0.00     0.131 C 
ATOM      3  C   UNL     1      85.086  52.525  45.435  1.00  0.00     0.174 C 
ATOM      4  O   UNL     1      85.126  52.906  46.599  1.00  0.00    -0.294 OA
ATOM      5  C   UNL     1      85.030  53.452  44.272  1.00  0.00     0.102 A 
ATOM      6  C   UNL     1      85.100  52.890  42.989  1.00  0.00     0.138 A 
ATOM      7  O   UNL     1      85.246  51.548  42.746  1.00  0.00    -0.484 OA
ATOM      8  C   UNL     1      84.993  53.693  41.853  1.00  0.00     0.094 A 
ATOM      9  C   UNL     1      84.858  55.070  42.003  1.00  0.00     0.138 A 
ATOM     10  C   UNL     1      84.785  55.653  43.267  1.00  0.00     0.094 A 
ATOM     11  C   UNL     1      84.879  54.841  44.401  1.00  0.00     0.133 A 
ENDROOT
BRANCH   1  12
ATOM     12  C   UNL     1      85.904  49.362  43.493  1.00  0.00    -0.003 A 
ATOM     13  C   UNL     1      86.086  46.619  42.863  1.00  0.00     0.165 A 
ATOM     14  C   UNL     1      87.137  47.477  42.505  1.00  0.00     0.002 A 
ATOM     15  C   UNL     1      84.979  47.125  43.551  1.00  0.00     0.173 A 
ATOM     16  C   UNL     1      87.027  48.847  42.820  1.00  0.00     0.015 A 
ATOM     17  C   UNL     1      84.885  48.480  43.875  1.00  0.00     0.058 A 
BRANCH  13  18
ATOM     18  O   UNL     1      86.182  45.276  42.609  1.00  0.00    -0.493 OA
ATOM     19  C   UNL     1      86.671  44.582  43.759  1.00  0.00     0.278 C 
ENDBRANCH  13  18
BRANCH  14  20
ATOM     20  C   UNL     1      88.399  46.969  41.843  1.00  0.00     0.067 C 
BRANCH  20  21
ATOM     21  C   UNL     1      89.630  47.266  42.658  1.00  0.00    -0.023 C 
ATOM     22  C   UNL     1      90.454  48.330  42.570  1.00  0.00    -0.080 C 
ATOM     23  C   UNL     1      90.316  49.459  41.587  1.00  0.00     0.039 C 
ATOM     24  C   UNL     1      91.643  48.453  43.486  1.00  0.00     0.039 C 
ENDBRANCH  20  21
ENDBRANCH  14  20
BRANCH  15  25
ATOM     25  O   UNL     1      83.991  46.253  44.020  1.00  0.00    -0.423 OA
BRANCH  25  26
ATOM     26  C   UNL     1      82.759  46.432  43.406  1.00  0.00     0.308 C 
ATOM     27  O   UNL     1      82.550  46.684  42.228  1.00  0.00    -0.252 OA
ATOM     28  C   UNL     1      81.681  46.250  44.433  1.00  0.00     0.139 C 
ENDBRANCH  25  26
ENDBRANCH  15  25
ENDBRANCH   1  12
BRANCH  11  29
ATOM     29  O   UNL     1      84.799  55.427  45.631  1.00  0.00    -0.507 OA
ATOM     30  H   UNL     1      84.708  56.389  45.541  1.00  0.00     0.293 HD
ENDBRANCH  11  29
BRANCH   9  31
ATOM     31  O   UNL     1      84.714  55.828  40.832  1.00  0.00    -0.426 OA
BRANCH  31  32
ATOM     32  C   UNL     1      84.450  55.122  39.661  1.00  0.00     0.308 C 
ATOM     33  O   UNL     1      85.253  54.485  38.994  1.00  0.00    -0.252 OA
ATOM     34  C   UNL     1      82.994  55.265  39.330  1.00  0.00     0.139 C 
ENDBRANCH  31  32
ENDBRANCH   9  31
TORSDOF 9
ENDMDL
