MODEL 1
REMARK VINA RESULT:    -9.115      0.000      0.000
REMARK INTER + INTRA:         -14.458
REMARK INTER:                 -13.826
REMARK INTRA:                  -0.632
REMARK UNBOUND:                -0.813
REMARK SMILES COc1ccc(C2CC(=O)c3c(O)cc(OCCC(C)CO)cc3O2)cc1O
REMARK SMILES IDX 17 1 18 2 19 3 20 4 21 5 22 6 16 8 15 9 23 10 14 11 24 12
REMARK SMILES IDX 12 13 25 14 11 15 7 16 9 17 8 18 10 19 13 20 6 22 5 23 26 24
REMARK SMILES IDX 4 25 27 26 3 27 28 28 2 30 1 31
REMARK H PARENT 22 7 13 21 28 29
ROOT
ATOM      1  C   UNL     1      88.838  50.616  41.344  1.00  0.00     0.230 C 
ENDROOT
BRANCH   1   2
ATOM      2  C   UNL     1      89.907  51.709  41.298  1.00  0.00     0.047 C 
BRANCH   2   3
ATOM      3  C   UNL     1      89.503  52.937  40.463  1.00  0.00     0.015 C 
ATOM      4  C   UNL     1      88.501  52.506  39.385  1.00  0.00     0.010 C 
BRANCH   3   5
ATOM      5  C   UNL     1      90.702  53.654  39.824  1.00  0.00     0.159 C 
BRANCH   5   6
ATOM      6  O   UNL     1      90.744  55.029  40.187  1.00  0.00    -0.396 OA
ATOM      7  H   UNL     1      90.364  55.103  41.080  1.00  0.00     0.210 HD
ENDBRANCH   5   6
ENDBRANCH   3   5
ENDBRANCH   2   3
ENDBRANCH   1   2
BRANCH   1   8
ATOM      8  O   UNL     1      89.134  49.670  42.375  1.00  0.00    -0.493 OA
BRANCH   8   9
ATOM      9  C   UNL     1      88.408  48.511  42.423  1.00  0.00     0.126 A 
ATOM     10  C   UNL     1      87.052  48.687  42.706  1.00  0.00     0.094 A 
ATOM     11  C   UNL     1      88.895  47.223  42.206  1.00  0.00     0.093 A 
ATOM     12  C   UNL     1      86.194  47.588  42.787  1.00  0.00     0.138 A 
ATOM     13  C   UNL     1      88.033  46.121  42.265  1.00  0.00     0.133 A 
ATOM     14  O   UNL     1      84.887  47.881  43.083  1.00  0.00    -0.484 OA
ATOM     15  C   UNL     1      86.674  46.295  42.552  1.00  0.00     0.102 A 
ATOM     16  C   UNL     1      84.172  46.768  43.638  1.00  0.00     0.211 C 
ATOM     17  C   UNL     1      85.692  45.178  42.581  1.00  0.00     0.174 C 
ATOM     18  C   UNL     1      84.247  45.573  42.705  1.00  0.00     0.131 C 
ATOM     19  O   UNL     1      86.008  43.998  42.472  1.00  0.00    -0.294 OA
BRANCH  13  20
ATOM     20  O   UNL     1      88.547  44.879  42.021  1.00  0.00    -0.507 OA
ATOM     21  H   UNL     1      88.605  44.718  41.065  1.00  0.00     0.293 HD
ENDBRANCH  13  20
BRANCH  16  22
ATOM     22  C   UNL     1      82.728  47.177  43.866  1.00  0.00    -0.003 A 
ATOM     23  C   UNL     1      82.306  48.473  43.533  1.00  0.00     0.011 A 
ATOM     24  C   UNL     1      81.798  46.298  44.443  1.00  0.00     0.057 A 
ATOM     25  C   UNL     1      80.985  48.880  43.758  1.00  0.00     0.051 A 
ATOM     26  C   UNL     1      80.482  46.710  44.663  1.00  0.00     0.158 A 
ATOM     27  C   UNL     1      80.059  48.002  44.326  1.00  0.00     0.160 A 
BRANCH  26  28
ATOM     28  O   UNL     1      79.584  45.838  45.221  1.00  0.00    -0.504 OA
ATOM     29  H   UNL     1      78.800  45.786  44.654  1.00  0.00     0.293 HD
ENDBRANCH  26  28
BRANCH  27  30
ATOM     30  O   UNL     1      78.748  48.300  44.586  1.00  0.00    -0.493 OA
ATOM     31  C   UNL     1      78.441  49.638  44.948  1.00  0.00     0.278 C 
ENDBRANCH  27  30
ENDBRANCH  16  22
ENDBRANCH   8   9
ENDBRANCH   1   8
TORSDOF 10
ENDMDL
MODEL 2
REMARK VINA RESULT:    -8.733      3.237      8.012
REMARK INTER + INTRA:         -13.886
REMARK INTER:                 -13.205
REMARK INTRA:                  -0.681
REMARK UNBOUND:                -0.813
REMARK SMILES COc1ccc(C2CC(=O)c3c(O)cc(OCCC(C)CO)cc3O2)cc1O
REMARK SMILES IDX 17 1 18 2 19 3 20 4 21 5 22 6 16 8 15 9 23 10 14 11 24 12
REMARK SMILES IDX 12 13 25 14 11 15 7 16 9 17 8 18 10 19 13 20 6 22 5 23 26 24
REMARK SMILES IDX 4 25 27 26 3 27 28 28 2 30 1 31
REMARK H PARENT 22 7 13 21 28 29
ROOT
ATOM      1  C   UNL     1      84.888  45.355  43.981  1.00  0.00     0.230 C 
ENDROOT
BRANCH   1   2
ATOM      2  C   UNL     1      85.678  44.046  43.944  1.00  0.00     0.047 C 
BRANCH   2   3
ATOM      3  C   UNL     1      87.199  44.244  43.813  1.00  0.00     0.015 C 
ATOM      4  C   UNL     1      87.517  44.791  42.416  1.00  0.00     0.010 C 
BRANCH   3   5
ATOM      5  C   UNL     1      88.000  42.961  44.081  1.00  0.00     0.159 C 
BRANCH   5   6
ATOM      6  O   UNL     1      88.795  43.076  45.255  1.00  0.00    -0.396 OA
ATOM      7  H   UNL     1      88.316  42.625  45.973  1.00  0.00     0.210 HD
ENDBRANCH   5   6
ENDBRANCH   3   5
ENDBRANCH   2   3
ENDBRANCH   1   2
BRANCH   1   8
ATOM      8  O   UNL     1      83.547  45.143  43.531  1.00  0.00    -0.493 OA
BRANCH   8   9
ATOM      9  C   UNL     1      82.665  46.187  43.595  1.00  0.00     0.126 A 
ATOM     10  C   UNL     1      83.128  47.373  43.021  1.00  0.00     0.094 A 
ATOM     11  C   UNL     1      81.388  46.155  44.152  1.00  0.00     0.093 A 
ATOM     12  C   UNL     1      82.331  48.520  43.018  1.00  0.00     0.138 A 
ATOM     13  C   UNL     1      80.578  47.297  44.130  1.00  0.00     0.133 A 
ATOM     14  O   UNL     1      82.894  49.627  42.438  1.00  0.00    -0.484 OA
ATOM     15  C   UNL     1      81.041  48.488  43.559  1.00  0.00     0.102 A 
ATOM     16  C   UNL     1      82.300  50.857  42.878  1.00  0.00     0.211 C 
ATOM     17  C   UNL     1      80.218  49.723  43.457  1.00  0.00     0.174 C 
ATOM     18  C   UNL     1      80.802  50.838  42.635  1.00  0.00     0.131 C 
ATOM     19  O   UNL     1      79.109  49.840  43.966  1.00  0.00    -0.294 OA
BRANCH  13  20
ATOM     20  O   UNL     1      79.323  47.215  44.666  1.00  0.00    -0.507 OA
ATOM     21  H   UNL     1      78.683  46.943  43.988  1.00  0.00     0.293 HD
ENDBRANCH  13  20
BRANCH  16  22
ATOM     22  C   UNL     1      82.948  52.010  42.132  1.00  0.00    -0.003 A 
ATOM     23  C   UNL     1      82.150  53.028  41.588  1.00  0.00     0.011 A 
ATOM     24  C   UNL     1      84.336  52.070  41.935  1.00  0.00     0.057 A 
ATOM     25  C   UNL     1      82.723  54.088  40.875  1.00  0.00     0.051 A 
ATOM     26  C   UNL     1      84.901  53.132  41.225  1.00  0.00     0.158 A 
ATOM     27  C   UNL     1      84.105  54.150  40.686  1.00  0.00     0.160 A 
BRANCH  26  28
ATOM     28  O   UNL     1      86.259  53.179  41.046  1.00  0.00    -0.504 OA
ATOM     29  H   UNL     1      86.620  53.914  41.566  1.00  0.00     0.293 HD
ENDBRANCH  26  28
BRANCH  27  30
ATOM     30  O   UNL     1      84.763  55.140  40.006  1.00  0.00    -0.493 OA
ATOM     31  C   UNL     1      84.476  55.288  38.623  1.00  0.00     0.278 C 
ENDBRANCH  27  30
ENDBRANCH  16  22
ENDBRANCH   8   9
ENDBRANCH   1   8
TORSDOF 10
ENDMDL
MODEL 3
REMARK VINA RESULT:    -8.553      1.557      7.937
REMARK INTER + INTRA:         -13.617
REMARK INTER:                 -12.684
REMARK INTRA:                  -0.933
REMARK UNBOUND:                -0.813
REMARK SMILES COc1ccc(C2CC(=O)c3c(O)cc(OCCC(C)CO)cc3O2)cc1O
REMARK SMILES IDX 17 1 18 2 19 3 20 4 21 5 22 6 16 8 15 9 23 10 14 11 24 12
REMARK SMILES IDX 12 13 25 14 11 15 7 16 9 17 8 18 10 19 13 20 6 22 5 23 26 24
REMARK SMILES IDX 4 25 27 26 3 27 28 28 2 30 1 31
REMARK H PARENT 22 7 13 21 28 29
ROOT
ATOM      1  C   UNL     1      82.141  46.516  43.371  1.00  0.00     0.230 C 
ENDROOT
BRANCH   1   2
ATOM      2  C   UNL     1      81.310  47.613  44.037  1.00  0.00     0.047 C 
BRANCH   2   3
ATOM      3  C   UNL     1      81.253  48.923  43.230  1.00  0.00     0.015 C 
ATOM      4  C   UNL     1      82.434  49.815  43.632  1.00  0.00     0.010 C 
BRANCH   3   5
ATOM      5  C   UNL     1      79.928  49.680  43.400  1.00  0.00     0.159 C 
BRANCH   5   6
ATOM      6  O   UNL     1      79.931  50.909  42.685  1.00  0.00    -0.396 OA
ATOM      7  H   UNL     1      80.488  50.782  41.897  1.00  0.00     0.210 HD
ENDBRANCH   5   6
ENDBRANCH   3   5
ENDBRANCH   2   3
ENDBRANCH   1   2
BRANCH   1   8
ATOM      8  O   UNL     1      83.146  46.035  44.268  1.00  0.00    -0.493 OA
BRANCH   8   9
ATOM      9  C   UNL     1      84.429  45.923  43.809  1.00  0.00     0.126 A 
ATOM     10  C   UNL     1      85.017  47.132  43.431  1.00  0.00     0.094 A 
ATOM     11  C   UNL     1      85.170  44.746  43.708  1.00  0.00     0.093 A 
ATOM     12  C   UNL     1      86.325  47.163  42.941  1.00  0.00     0.138 A 
ATOM     13  C   UNL     1      86.489  44.779  43.239  1.00  0.00     0.133 A 
ATOM     14  O   UNL     1      86.793  48.404  42.590  1.00  0.00    -0.484 OA
ATOM     15  C   UNL     1      87.079  45.989  42.856  1.00  0.00     0.102 A 
ATOM     16  C   UNL     1      87.887  48.352  41.663  1.00  0.00     0.211 C 
ATOM     17  C   UNL     1      88.489  46.104  42.396  1.00  0.00     0.174 C 
ATOM     18  C   UNL     1      89.014  47.502  42.221  1.00  0.00     0.131 C 
ATOM     19  O   UNL     1      89.219  45.137  42.203  1.00  0.00    -0.294 OA
BRANCH  13  20
ATOM     20  O   UNL     1      87.187  43.605  43.180  1.00  0.00    -0.507 OA
ATOM     21  H   UNL     1      87.202  43.175  44.050  1.00  0.00     0.293 HD
ENDBRANCH  13  20
BRANCH  16  22
ATOM     22  C   UNL     1      88.369  49.766  41.392  1.00  0.00    -0.003 A 
ATOM     23  C   UNL     1      89.733  50.075  41.504  1.00  0.00     0.011 A 
ATOM     24  C   UNL     1      87.474  50.797  41.064  1.00  0.00     0.057 A 
ATOM     25  C   UNL     1      90.197  51.377  41.282  1.00  0.00     0.051 A 
ATOM     26  C   UNL     1      87.944  52.093  40.843  1.00  0.00     0.158 A 
ATOM     27  C   UNL     1      89.306  52.400  40.950  1.00  0.00     0.160 A 
BRANCH  26  28
ATOM     28  O   UNL     1      87.059  53.088  40.518  1.00  0.00    -0.504 OA
ATOM     29  H   UNL     1      86.859  53.035  39.571  1.00  0.00     0.293 HD
ENDBRANCH  26  28
BRANCH  27  30
ATOM     30  O   UNL     1      89.657  53.703  40.714  1.00  0.00    -0.493 OA
ATOM     31  C   UNL     1      90.723  53.941  39.807  1.00  0.00     0.278 C 
ENDBRANCH  27  30
ENDBRANCH  16  22
ENDBRANCH   8   9
ENDBRANCH   1   8
TORSDOF 10
ENDMDL
MODEL 4
REMARK VINA RESULT:    -8.524      5.409      7.003
REMARK INTER + INTRA:         -13.573
REMARK INTER:                 -12.483
REMARK INTRA:                  -1.089
REMARK UNBOUND:                -0.813
REMARK SMILES COc1ccc(C2CC(=O)c3c(O)cc(OCCC(C)CO)cc3O2)cc1O
REMARK SMILES IDX 17 1 18 2 19 3 20 4 21 5 22 6 16 8 15 9 23 10 14 11 24 12
REMARK SMILES IDX 12 13 25 14 11 15 7 16 9 17 8 18 10 19 13 20 6 22 5 23 26 24
REMARK SMILES IDX 4 25 27 26 3 27 28 28 2 30 1 31
REMARK H PARENT 22 7 13 21 28 29
ROOT
ATOM      1  C   UNL     1      86.498  55.886  46.462  1.00  0.00     0.230 C 
ENDROOT
BRANCH   1   2
ATOM      2  C   UNL     1      85.795  55.345  47.708  1.00  0.00     0.047 C 
BRANCH   2   3
ATOM      3  C   UNL     1      84.277  55.601  47.724  1.00  0.00     0.015 C 
ATOM      4  C   UNL     1      83.541  54.260  47.829  1.00  0.00     0.010 C 
BRANCH   3   5
ATOM      5  C   UNL     1      83.785  56.389  46.501  1.00  0.00     0.159 C 
BRANCH   5   6
ATOM      6  O   UNL     1      83.314  57.680  46.865  1.00  0.00    -0.396 OA
ATOM      7  H   UNL     1      82.857  57.590  47.720  1.00  0.00     0.210 HD
ENDBRANCH   5   6
ENDBRANCH   3   5
ENDBRANCH   2   3
ENDBRANCH   1   2
BRANCH   1   8
ATOM      8  O   UNL     1      86.830  54.818  45.571  1.00  0.00    -0.493 OA
BRANCH   8   9
ATOM      9  C   UNL     1      86.001  54.573  44.510  1.00  0.00     0.126 A 
ATOM     10  C   UNL     1      85.232  53.414  44.632  1.00  0.00     0.094 A 
ATOM     11  C   UNL     1      85.861  55.365  43.372  1.00  0.00     0.093 A 
ATOM     12  C   UNL     1      84.343  53.041  43.621  1.00  0.00     0.138 A 
ATOM     13  C   UNL     1      84.954  55.005  42.367  1.00  0.00     0.133 A 
ATOM     14  O   UNL     1      83.650  51.878  43.845  1.00  0.00    -0.484 OA
ATOM     15  C   UNL     1      84.185  53.842  42.485  1.00  0.00     0.102 A 
ATOM     16  C   UNL     1      83.155  51.277  42.639  1.00  0.00     0.211 C 
ATOM     17  C   UNL     1      83.168  53.426  41.482  1.00  0.00     0.174 C 
ATOM     18  C   UNL     1      82.296  52.264  41.869  1.00  0.00     0.131 C 
ATOM     19  O   UNL     1      82.999  54.001  40.412  1.00  0.00    -0.294 OA
BRANCH  13  20
ATOM     20  O   UNL     1      84.831  55.824  41.280  1.00  0.00    -0.507 OA
ATOM     21  H   UNL     1      85.187  55.390  40.487  1.00  0.00     0.293 HD
ENDBRANCH  13  20
BRANCH  16  22
ATOM     22  C   UNL     1      82.353  50.040  43.001  1.00  0.00    -0.003 A 
ATOM     23  C   UNL     1      80.952  50.069  42.931  1.00  0.00     0.011 A 
ATOM     24  C   UNL     1      82.978  48.864  43.445  1.00  0.00     0.057 A 
ATOM     25  C   UNL     1      80.191  48.948  43.284  1.00  0.00     0.051 A 
ATOM     26  C   UNL     1      82.212  47.749  43.793  1.00  0.00     0.158 A 
ATOM     27  C   UNL     1      80.813  47.776  43.718  1.00  0.00     0.160 A 
BRANCH  26  28
ATOM     28  O   UNL     1      82.836  46.606  44.218  1.00  0.00    -0.504 OA
ATOM     29  H   UNL     1      83.142  46.107  43.446  1.00  0.00     0.293 HD
ENDBRANCH  26  28
BRANCH  27  30
ATOM     30  O   UNL     1      80.163  46.628  44.086  1.00  0.00    -0.493 OA
ATOM     31  C   UNL     1      78.744  46.662  44.119  1.00  0.00     0.278 C 
ENDBRANCH  27  30
ENDBRANCH  16  22
ENDBRANCH   8   9
ENDBRANCH   1   8
TORSDOF 10
ENDMDL
MODEL 5
REMARK VINA RESULT:    -8.366      3.032      6.945
REMARK INTER + INTRA:         -13.336
REMARK INTER:                 -12.662
REMARK INTRA:                  -0.674
REMARK UNBOUND:                -0.813
REMARK SMILES COc1ccc(C2CC(=O)c3c(O)cc(OCCC(C)CO)cc3O2)cc1O
REMARK SMILES IDX 17 1 18 2 19 3 20 4 21 5 22 6 16 8 15 9 23 10 14 11 24 12
REMARK SMILES IDX 12 13 25 14 11 15 7 16 9 17 8 18 10 19 13 20 6 22 5 23 26 24
REMARK SMILES IDX 4 25 27 26 3 27 28 28 2 30 1 31
REMARK H PARENT 22 7 13 21 28 29
ROOT
ATOM      1  C   UNL     1      82.601  52.301  41.598  1.00  0.00     0.230 C 
ENDROOT
BRANCH   1   2
ATOM      2  C   UNL     1      82.667  53.785  41.234  1.00  0.00     0.047 C 
BRANCH   2   3
ATOM      3  C   UNL     1      84.100  54.313  41.039  1.00  0.00     0.015 C 
ATOM      4  C   UNL     1      84.278  55.601  41.854  1.00  0.00     0.010 C 
BRANCH   3   5
ATOM      5  C   UNL     1      84.459  54.557  39.566  1.00  0.00     0.159 C 
BRANCH   5   6
ATOM      6  O   UNL     1      85.018  55.849  39.370  1.00  0.00    -0.396 OA
ATOM      7  H   UNL     1      84.751  56.397  40.129  1.00  0.00     0.210 HD
ENDBRANCH   5   6
ENDBRANCH   3   5
ENDBRANCH   2   3
ENDBRANCH   1   2
BRANCH   1   8
ATOM      8  O   UNL     1      81.311  51.970  42.118  1.00  0.00    -0.493 OA
BRANCH   8   9
ATOM      9  C   UNL     1      81.120  50.720  42.640  1.00  0.00     0.126 A 
ATOM     10  C   UNL     1      82.257  49.909  42.634  1.00  0.00     0.094 A 
ATOM     11  C   UNL     1      79.931  50.219  43.169  1.00  0.00     0.093 A 
ATOM     12  C   UNL     1      82.203  48.607  43.135  1.00  0.00     0.138 A 
ATOM     13  C   UNL     1      79.881  48.922  43.694  1.00  0.00     0.133 A 
ATOM     14  O   UNL     1      83.378  47.901  43.066  1.00  0.00    -0.484 OA
ATOM     15  C   UNL     1      81.019  48.106  43.685  1.00  0.00     0.102 A 
ATOM     16  C   UNL     1      83.183  46.479  43.109  1.00  0.00     0.211 C 
ATOM     17  C   UNL     1      81.051  46.738  44.269  1.00  0.00     0.174 C 
ATOM     18  C   UNL     1      82.405  46.089  44.353  1.00  0.00     0.131 C 
ATOM     19  O   UNL     1      80.058  46.164  44.702  1.00  0.00    -0.294 OA
BRANCH  13  20
ATOM     20  O   UNL     1      78.702  48.480  44.225  1.00  0.00    -0.507 OA
ATOM     21  H   UNL     1      78.843  48.132  45.120  1.00  0.00     0.293 HD
ENDBRANCH  13  20
BRANCH  16  22
ATOM     22  C   UNL     1      84.539  45.797  43.093  1.00  0.00    -0.003 A 
ATOM     23  C   UNL     1      84.738  44.615  43.822  1.00  0.00     0.011 A 
ATOM     24  C   UNL     1      85.626  46.341  42.390  1.00  0.00     0.057 A 
ATOM     25  C   UNL     1      85.987  43.982  43.841  1.00  0.00     0.051 A 
ATOM     26  C   UNL     1      86.868  45.703  42.412  1.00  0.00     0.158 A 
ATOM     27  C   UNL     1      87.065  44.520  43.136  1.00  0.00     0.160 A 
BRANCH  26  28
ATOM     28  O   UNL     1      87.918  46.243  41.716  1.00  0.00    -0.504 OA
ATOM     29  H   UNL     1      88.606  45.568  41.609  1.00  0.00     0.293 HD
ENDBRANCH  26  28
BRANCH  27  30
ATOM     30  O   UNL     1      88.323  43.982  43.090  1.00  0.00    -0.493 OA
ATOM     31  C   UNL     1      88.684  43.071  44.118  1.00  0.00     0.278 C 
ENDBRANCH  27  30
ENDBRANCH  16  22
ENDBRANCH   8   9
ENDBRANCH   1   8
TORSDOF 10
ENDMDL
MODEL 6
REMARK VINA RESULT:    -8.165      3.689      7.782
REMARK INTER + INTRA:         -13.036
REMARK INTER:                 -12.328
REMARK INTRA:                  -0.708
REMARK UNBOUND:                -0.813
REMARK SMILES COc1ccc(C2CC(=O)c3c(O)cc(OCCC(C)CO)cc3O2)cc1O
REMARK SMILES IDX 17 1 18 2 19 3 20 4 21 5 22 6 16 8 15 9 23 10 14 11 24 12
REMARK SMILES IDX 12 13 25 14 11 15 7 16 9 17 8 18 10 19 13 20 6 22 5 23 26 24
REMARK SMILES IDX 4 25 27 26 3 27 28 28 2 30 1 31
REMARK H PARENT 22 7 13 21 28 29
ROOT
ATOM      1  C   UNL     1      85.375  44.319  43.826  1.00  0.00     0.230 C 
ENDROOT
BRANCH   1   2
ATOM      2  C   UNL     1      86.547  43.791  42.997  1.00  0.00     0.047 C 
BRANCH   2   3
ATOM      3  C   UNL     1      87.926  44.101  43.606  1.00  0.00     0.015 C 
ATOM      4  C   UNL     1      88.780  44.842  42.569  1.00  0.00     0.010 C 
BRANCH   3   5
ATOM      5  C   UNL     1      88.660  42.849  44.108  1.00  0.00     0.159 C 
BRANCH   5   6
ATOM      6  O   UNL     1      88.927  42.922  45.503  1.00  0.00    -0.396 OA
ATOM      7  H   UNL     1      88.423  42.207  45.930  1.00  0.00     0.210 HD
ENDBRANCH   5   6
ENDBRANCH   3   5
ENDBRANCH   2   3
ENDBRANCH   1   2
BRANCH   1   8
ATOM      8  O   UNL     1      85.580  45.694  44.163  1.00  0.00    -0.493 OA
BRANCH   8   9
ATOM      9  C   UNL     1      84.571  46.583  43.913  1.00  0.00     0.126 A 
ATOM     10  C   UNL     1      84.981  47.915  43.827  1.00  0.00     0.094 A 
ATOM     11  C   UNL     1      83.224  46.274  43.731  1.00  0.00     0.093 A 
ATOM     12  C   UNL     1      84.054  48.930  43.579  1.00  0.00     0.138 A 
ATOM     13  C   UNL     1      82.296  47.287  43.459  1.00  0.00     0.133 A 
ATOM     14  O   UNL     1      84.569  50.200  43.528  1.00  0.00    -0.484 OA
ATOM     15  C   UNL     1      82.704  48.623  43.376  1.00  0.00     0.102 A 
ATOM     16  C   UNL     1      83.587  51.217  43.770  1.00  0.00     0.211 C 
ATOM     17  C   UNL     1      81.783  49.742  43.042  1.00  0.00     0.174 C 
ATOM     18  C   UNL     1      82.430  51.078  42.797  1.00  0.00     0.131 C 
ATOM     19  O   UNL     1      80.570  49.608  42.925  1.00  0.00    -0.294 OA
BRANCH  13  20
ATOM     20  O   UNL     1      80.990  46.936  43.262  1.00  0.00    -0.507 OA
ATOM     21  H   UNL     1      80.764  46.157  43.797  1.00  0.00     0.293 HD
ENDBRANCH  13  20
BRANCH  16  22
ATOM     22  C   UNL     1      84.243  52.578  43.628  1.00  0.00    -0.003 A 
ATOM     23  C   UNL     1      84.810  53.203  44.749  1.00  0.00     0.011 A 
ATOM     24  C   UNL     1      84.267  53.257  42.399  1.00  0.00     0.057 A 
ATOM     25  C   UNL     1      85.398  54.470  44.646  1.00  0.00     0.051 A 
ATOM     26  C   UNL     1      84.858  54.519  42.304  1.00  0.00     0.158 A 
ATOM     27  C   UNL     1      85.428  55.140  43.422  1.00  0.00     0.160 A 
BRANCH  26  28
ATOM     28  O   UNL     1      84.879  55.166  41.096  1.00  0.00    -0.504 OA
ATOM     29  H   UNL     1      85.570  55.846  41.115  1.00  0.00     0.293 HD
ENDBRANCH  26  28
BRANCH  27  30
ATOM     30  O   UNL     1      85.978  56.378  43.215  1.00  0.00    -0.493 OA
ATOM     31  C   UNL     1      86.051  57.256  44.329  1.00  0.00     0.278 C 
ENDBRANCH  27  30
ENDBRANCH  16  22
ENDBRANCH   8   9
ENDBRANCH   1   8
TORSDOF 10
ENDMDL
MODEL 7
REMARK VINA RESULT:    -7.980      5.121      7.096
REMARK INTER + INTRA:         -12.758
REMARK INTER:                 -11.942
REMARK INTRA:                  -0.816
REMARK UNBOUND:                -0.813
REMARK SMILES COc1ccc(C2CC(=O)c3c(O)cc(OCCC(C)CO)cc3O2)cc1O
REMARK SMILES IDX 17 1 18 2 19 3 20 4 21 5 22 6 16 8 15 9 23 10 14 11 24 12
REMARK SMILES IDX 12 13 25 14 11 15 7 16 9 17 8 18 10 19 13 20 6 22 5 23 26 24
REMARK SMILES IDX 4 25 27 26 3 27 28 28 2 30 1 31
REMARK H PARENT 22 7 13 21 28 29
ROOT
ATOM      1  C   UNL     1      85.555  55.371  47.311  1.00  0.00     0.230 C 
ENDROOT
BRANCH   1   2
ATOM      2  C   UNL     1      85.848  54.413  48.467  1.00  0.00     0.047 C 
BRANCH   2   3
ATOM      3  C   UNL     1      85.153  53.047  48.332  1.00  0.00     0.015 C 
ATOM      4  C   UNL     1      83.846  53.064  49.135  1.00  0.00     0.010 C 
BRANCH   3   5
ATOM      5  C   UNL     1      86.038  51.872  48.773  1.00  0.00     0.159 C 
BRANCH   5   6
ATOM      6  O   UNL     1      86.347  51.011  47.685  1.00  0.00    -0.396 OA
ATOM      7  H   UNL     1      85.731  50.258  47.729  1.00  0.00     0.210 HD
ENDBRANCH   5   6
ENDBRANCH   3   5
ENDBRANCH   2   3
ENDBRANCH   1   2
BRANCH   1   8
ATOM      8  O   UNL     1      86.345  55.032  46.168  1.00  0.00    -0.493 OA
BRANCH   8   9
ATOM      9  C   UNL     1      85.703  54.713  45.003  1.00  0.00     0.126 A 
ATOM     10  C   UNL     1      85.027  53.492  45.029  1.00  0.00     0.094 A 
ATOM     11  C   UNL     1      85.661  55.489  43.845  1.00  0.00     0.093 A 
ATOM     12  C   UNL     1      84.330  53.041  43.905  1.00  0.00     0.138 A 
ATOM     13  C   UNL     1      84.944  55.050  42.725  1.00  0.00     0.133 A 
ATOM     14  O   UNL     1      83.716  51.823  44.043  1.00  0.00    -0.484 OA
ATOM     15  C   UNL     1      84.269  53.824  42.747  1.00  0.00     0.102 A 
ATOM     16  C   UNL     1      83.454  51.179  42.787  1.00  0.00     0.211 C 
ATOM     17  C   UNL     1      83.448  53.319  41.614  1.00  0.00     0.174 C 
ATOM     18  C   UNL     1      82.633  52.086  41.888  1.00  0.00     0.131 C 
ATOM     19  O   UNL     1      83.387  53.875  40.523  1.00  0.00    -0.294 OA
BRANCH  13  20
ATOM     20  O   UNL     1      84.909  55.853  41.620  1.00  0.00    -0.507 OA
ATOM     21  H   UNL     1      85.717  55.741  41.094  1.00  0.00     0.293 HD
ENDBRANCH  13  20
BRANCH  16  22
ATOM     22  C   UNL     1      82.718  49.877  43.047  1.00  0.00    -0.003 A 
ATOM     23  C   UNL     1      81.321  49.827  42.932  1.00  0.00     0.011 A 
ATOM     24  C   UNL     1      83.399  48.714  43.441  1.00  0.00     0.057 A 
ATOM     25  C   UNL     1      80.619  48.643  43.191  1.00  0.00     0.051 A 
ATOM     26  C   UNL     1      82.692  47.537  43.695  1.00  0.00     0.158 A 
ATOM     27  C   UNL     1      81.298  47.486  43.575  1.00  0.00     0.160 A 
BRANCH  26  28
ATOM     28  O   UNL     1      83.372  46.408  44.072  1.00  0.00    -0.504 OA
ATOM     29  H   UNL     1      83.019  46.095  44.919  1.00  0.00     0.293 HD
ENDBRANCH  26  28
BRANCH  27  30
ATOM     30  O   UNL     1      80.708  46.281  43.851  1.00  0.00    -0.493 OA
ATOM     31  C   UNL     1      79.973  46.173  45.061  1.00  0.00     0.278 C 
ENDBRANCH  27  30
ENDBRANCH  16  22
ENDBRANCH   8   9
ENDBRANCH   1   8
TORSDOF 10
ENDMDL
MODEL 8
REMARK VINA RESULT:    -7.770      3.894      7.881
REMARK INTER + INTRA:         -12.445
REMARK INTER:                 -11.519
REMARK INTRA:                  -0.926
REMARK UNBOUND:                -0.813
REMARK SMILES COc1ccc(C2CC(=O)c3c(O)cc(OCCC(C)CO)cc3O2)cc1O
REMARK SMILES IDX 17 1 18 2 19 3 20 4 21 5 22 6 16 8 15 9 23 10 14 11 24 12
REMARK SMILES IDX 12 13 25 14 11 15 7 16 9 17 8 18 10 19 13 20 6 22 5 23 26 24
REMARK SMILES IDX 4 25 27 26 3 27 28 28 2 30 1 31
REMARK H PARENT 22 7 13 21 28 29
ROOT
ATOM      1  C   UNL     1      83.639  45.668  43.509  1.00  0.00     0.230 C 
ENDROOT
BRANCH   1   2
ATOM      2  C   UNL     1      82.854  46.740  42.752  1.00  0.00     0.047 C 
BRANCH   2   3
ATOM      3  C   UNL     1      81.563  47.183  43.466  1.00  0.00     0.015 C 
ATOM      4  C   UNL     1      81.720  48.635  43.935  1.00  0.00     0.010 C 
BRANCH   3   5
ATOM      5  C   UNL     1      81.184  46.276  44.645  1.00  0.00     0.159 C 
BRANCH   5   6
ATOM      6  O   UNL     1      80.085  46.803  45.379  1.00  0.00    -0.396 OA
ATOM      7  H   UNL     1      80.336  46.795  46.320  1.00  0.00     0.210 HD
ENDBRANCH   5   6
ENDBRANCH   3   5
ENDBRANCH   2   3
ENDBRANCH   1   2
BRANCH   1   8
ATOM      8  O   UNL     1      84.651  46.268  44.321  1.00  0.00    -0.493 OA
BRANCH   8   9
ATOM      9  C   UNL     1      85.532  47.132  43.732  1.00  0.00     0.126 A 
ATOM     10  C   UNL     1      85.493  48.434  44.236  1.00  0.00     0.094 A 
ATOM     11  C   UNL     1      86.440  46.823  42.720  1.00  0.00     0.093 A 
ATOM     12  C   UNL     1      86.339  49.421  43.723  1.00  0.00     0.138 A 
ATOM     13  C   UNL     1      87.305  47.804  42.220  1.00  0.00     0.133 A 
ATOM     14  O   UNL     1      86.203  50.664  44.287  1.00  0.00    -0.484 OA
ATOM     15  C   UNL     1      87.264  49.111  42.721  1.00  0.00     0.102 A 
ATOM     16  C   UNL     1      86.687  51.720  43.444  1.00  0.00     0.211 C 
ATOM     17  C   UNL     1      88.185  50.190  42.273  1.00  0.00     0.174 C 
ATOM     18  C   UNL     1      88.134  51.469  43.060  1.00  0.00     0.131 C 
ATOM     19  O   UNL     1      88.978  50.060  41.347  1.00  0.00    -0.294 OA
BRANCH  13  20
ATOM     20  O   UNL     1      88.195  47.452  41.245  1.00  0.00    -0.507 OA
ATOM     21  H   UNL     1      88.551  46.565  41.417  1.00  0.00     0.293 HD
ENDBRANCH  13  20
BRANCH  16  22
ATOM     22  C   UNL     1      86.551  53.039  44.183  1.00  0.00    -0.003 A 
ATOM     23  C   UNL     1      86.703  54.249  43.489  1.00  0.00     0.011 A 
ATOM     24  C   UNL     1      86.311  53.086  45.565  1.00  0.00     0.057 A 
ATOM     25  C   UNL     1      86.607  55.477  44.154  1.00  0.00     0.051 A 
ATOM     26  C   UNL     1      86.215  54.315  46.221  1.00  0.00     0.158 A 
ATOM     27  C   UNL     1      86.361  55.522  45.528  1.00  0.00     0.160 A 
BRANCH  26  28
ATOM     28  O   UNL     1      85.974  54.344  47.570  1.00  0.00    -0.504 OA
ATOM     29  H   UNL     1      86.119  55.245  47.897  1.00  0.00     0.293 HD
ENDBRANCH  26  28
BRANCH  27  30
ATOM     30  O   UNL     1      86.250  56.667  46.271  1.00  0.00    -0.493 OA
ATOM     31  C   UNL     1      85.114  57.488  46.043  1.00  0.00     0.278 C 
ENDBRANCH  27  30
ENDBRANCH  16  22
ENDBRANCH   8   9
ENDBRANCH   1   8
TORSDOF 10
ENDMDL
MODEL 9
REMARK VINA RESULT:    -7.750      3.933      7.692
REMARK INTER + INTRA:         -12.414
REMARK INTER:                 -11.600
REMARK INTRA:                  -0.813
REMARK UNBOUND:                -0.813
REMARK SMILES COc1ccc(C2CC(=O)c3c(O)cc(OCCC(C)CO)cc3O2)cc1O
REMARK SMILES IDX 17 1 18 2 19 3 20 4 21 5 22 6 16 8 15 9 23 10 14 11 24 12
REMARK SMILES IDX 12 13 25 14 11 15 7 16 9 17 8 18 10 19 13 20 6 22 5 23 26 24
REMARK SMILES IDX 4 25 27 26 3 27 28 28 2 30 1 31
REMARK H PARENT 22 7 13 21 28 29
ROOT
ATOM      1  C   UNL     1      86.130  44.332  42.490  1.00  0.00     0.230 C 
ENDROOT
BRANCH   1   2
ATOM      2  C   UNL     1      86.474  43.371  43.629  1.00  0.00     0.047 C 
BRANCH   2   3
ATOM      3  C   UNL     1      87.836  42.673  43.461  1.00  0.00     0.015 C 
ATOM      4  C   UNL     1      87.716  41.216  43.924  1.00  0.00     0.010 C 
BRANCH   3   5
ATOM      5  C   UNL     1      88.974  43.382  44.209  1.00  0.00     0.159 C 
BRANCH   5   6
ATOM      6  O   UNL     1      89.003  43.018  45.584  1.00  0.00    -0.396 OA
ATOM      7  H   UNL     1      89.442  43.743  46.064  1.00  0.00     0.210 HD
ENDBRANCH   5   6
ENDBRANCH   3   5
ENDBRANCH   2   3
ENDBRANCH   1   2
BRANCH   1   8
ATOM      8  O   UNL     1      85.916  45.652  42.996  1.00  0.00    -0.493 OA
BRANCH   8   9
ATOM      9  C   UNL     1      86.782  46.642  42.620  1.00  0.00     0.126 A 
ATOM     10  C   UNL     1      86.268  47.936  42.736  1.00  0.00     0.094 A 
ATOM     11  C   UNL     1      88.087  46.468  42.164  1.00  0.00     0.093 A 
ATOM     12  C   UNL     1      87.045  49.042  42.384  1.00  0.00     0.138 A 
ATOM     13  C   UNL     1      88.875  47.577  41.832  1.00  0.00     0.133 A 
ATOM     14  O   UNL     1      86.432  50.261  42.528  1.00  0.00    -0.484 OA
ATOM     15  C   UNL     1      88.361  48.874  41.944  1.00  0.00     0.102 A 
ATOM     16  C   UNL     1      87.027  51.290  41.723  1.00  0.00     0.211 C 
ATOM     17  C   UNL     1      89.156  50.098  41.657  1.00  0.00     0.174 C 
ATOM     18  C   UNL     1      88.510  51.405  42.025  1.00  0.00     0.131 C 
ATOM     19  O   UNL     1      90.289  50.075  41.188  1.00  0.00    -0.294 OA
BRANCH  13  20
ATOM     20  O   UNL     1      90.158  47.362  41.413  1.00  0.00    -0.507 OA
ATOM     21  H   UNL     1      90.214  47.431  40.446  1.00  0.00     0.293 HD
ENDBRANCH  13  20
BRANCH  16  22
ATOM     22  C   UNL     1      86.321  52.604  42.004  1.00  0.00    -0.003 A 
ATOM     23  C   UNL     1      86.457  53.218  43.258  1.00  0.00     0.011 A 
ATOM     24  C   UNL     1      85.494  53.213  41.047  1.00  0.00     0.057 A 
ATOM     25  C   UNL     1      85.795  54.417  43.548  1.00  0.00     0.051 A 
ATOM     26  C   UNL     1      84.839  54.410  41.342  1.00  0.00     0.158 A 
ATOM     27  C   UNL     1      84.979  55.025  42.592  1.00  0.00     0.160 A 
BRANCH  26  28
ATOM     28  O   UNL     1      84.041  54.996  40.395  1.00  0.00    -0.504 OA
ATOM     29  H   UNL     1      84.336  55.908  40.253  1.00  0.00     0.293 HD
ENDBRANCH  26  28
BRANCH  27  30
ATOM     30  O   UNL     1      84.290  56.195  42.774  1.00  0.00    -0.493 OA
ATOM     31  C   UNL     1      84.956  57.249  43.453  1.00  0.00     0.278 C 
ENDBRANCH  27  30
ENDBRANCH  16  22
ENDBRANCH   8   9
ENDBRANCH   1   8
TORSDOF 10
ENDMDL
