REMARK SMILES CC1(C)CC[C@]2(C(=O)O)CC[C@]3(C)C(=CC[C@@H]4[C@@]5(C)C[C@@H](O)[C@H](O)C(C)(C)[C@@H]5CC[C@]43C)[C@@H]2C1
REMARK SMILES IDX 21 1 20 2 18 3 19 4 28 5 25 6 23 7 26 8 27 9 29 10 30 11
REMARK SMILES IDX 31 12 17 13 16 14 15 15 14 16 12 17 13 18 11 19 10 20 6 21
REMARK SMILES IDX 33 22 34 23 2 24 1 25 3 26 4 27 5 28 32 29 22 30 24 32 7 34
REMARK SMILES IDX 8 35 9 36
REMARK H PARENT 22 31 24 33 9 37
ROOT
ATOM      1  C   UNL     1      -3.946  -0.378   2.629  1.00  0.00     0.144 C 
ATOM      2  C   UNL     1      -3.344  -1.428   1.697  1.00  0.00     0.042 C 
ATOM      3  C   UNL     1      -2.872  -0.903   0.292  1.00  0.00    -0.023 C 
ATOM      4  C   UNL     1      -3.300  -2.000  -0.723  1.00  0.00     0.012 C 
ATOM      5  C   UNL     1      -3.534   0.501   0.019  1.00  0.00     0.004 C 
ATOM      6  C   UNL     1      -5.035   0.618   0.441  1.00  0.00    -0.003 C 
ATOM      7  C   UNL     1      -5.123   0.406   1.998  1.00  0.00     0.149 C 
ATOM      8  C   UNL     1      -5.568   2.048   0.156  1.00  0.00     0.014 C 
ATOM      9  C   UNL     1      -5.963  -0.337  -0.335  1.00  0.00     0.014 C 
ATOM     10  C   UNL     1      -3.142   1.033  -1.370  1.00  0.00     0.005 C 
ATOM     11  C   UNL     1      -1.636   1.321  -1.395  1.00  0.00     0.008 C 
ATOM     12  C   UNL     1      -0.719   0.123  -1.009  1.00  0.00    -0.020 C 
ATOM     13  C   UNL     1      -1.294  -0.651   0.254  1.00  0.00     0.006 C 
ATOM     14  C   UNL     1      -0.416  -1.887   0.554  1.00  0.00     0.032 C 
ATOM     15  C   UNL     1       1.059  -1.643   0.413  1.00  0.00    -0.027 C 
ATOM     16  C   UNL     1       1.639  -0.541  -0.105  1.00  0.00    -0.063 C 
ATOM     17  C   UNL     1       0.798   0.628  -0.647  1.00  0.00    -0.006 C 
ATOM     18  C   UNL     1       0.786   1.731   0.453  1.00  0.00     0.017 C 
ATOM     19  C   UNL     1       1.483   1.236  -1.905  1.00  0.00     0.013 C 
ATOM     20  C   UNL     1       2.978   1.510  -1.738  1.00  0.00     0.020 C 
ATOM     21  C   UNL     1       3.775   0.228  -1.407  1.00  0.00     0.074 C 
ATOM     22  C   UNL     1       3.171  -0.494  -0.164  1.00  0.00     0.033 C 
ATOM     23  C   UNL     1       3.795   0.049   1.140  1.00  0.00     0.015 C 
ATOM     24  C   UNL     1       5.314  -0.261   1.228  1.00  0.00    -0.035 C 
ATOM     25  C   UNL     1       5.537  -1.620   1.919  1.00  0.00     0.011 C 
ATOM     26  C   UNL     1       5.991   0.824   2.088  1.00  0.00     0.011 C 
ATOM     27  C   UNL     1       5.963  -0.304  -0.178  1.00  0.00     0.007 C 
ATOM     28  C   UNL     1       5.261   0.630  -1.163  1.00  0.00     0.020 C 
ATOM     29  C   UNL     1      -0.661  -0.811  -2.260  1.00  0.00     0.012 C 
ENDROOT
BRANCH   1  30
ATOM     30  O   UNL     1      -2.906   0.515   3.042  1.00  0.00    -0.390 OA
ATOM     31  H   UNL     1      -3.246   1.012   3.806  1.00  0.00     0.211 HD
ENDBRANCH   1  30
BRANCH   7  32
ATOM     32  O   UNL     1      -6.353  -0.224   2.369  1.00  0.00    -0.390 OA
ATOM     33  H   UNL     1      -7.077   0.353   2.072  1.00  0.00     0.211 HD
ENDBRANCH   7  32
BRANCH  21  34
ATOM     34  C   UNL     1       3.781  -0.745  -2.595  1.00  0.00     0.310 C 
ATOM     35  O   UNL     1       3.826  -1.964  -2.548  1.00  0.00    -0.252 OA
BRANCH  34  36
ATOM     36  O   UNL     1       3.820  -0.139  -3.799  1.00  0.00    -0.481 OA
ATOM     37  H   UNL     1       3.851  -0.888  -4.431  1.00  0.00     0.296 HD
ENDBRANCH  34  36
ENDBRANCH  21  34
TORSDOF 4
