REMARK SMILES COc1cc(O)c(CC=C(C)C)c2c1C(=O)C[C@@H](c1ccccc1)O2
REMARK SMILES IDX 3 1 4 2 5 3 7 4 13 5 14 6 15 7 16 8 17 9 18 10 25 11 2 12
REMARK SMILES IDX 1 13 6 14 8 16 9 17 10 18 11 19 12 20 19 21 20 22 24 23
REMARK SMILES IDX 21 24 23 25 22 26
REMARK H PARENT 6 15
ROOT
ATOM      1  C   UNL     1       0.765   2.178  -1.306  1.00  0.00     0.137 A 
ATOM      2  C   UNL     1      -0.421   2.704  -0.790  1.00  0.00     0.093 A 
ATOM      3  C   UNL     1      -1.324   1.867  -0.139  1.00  0.00     0.126 A 
ATOM      4  C   UNL     1      -1.067   0.498   0.014  1.00  0.00     0.041 A 
ATOM      5  C   UNL     1       0.130  -0.022  -0.523  1.00  0.00     0.142 A 
ATOM      6  C   UNL     1       1.037   0.809  -1.202  1.00  0.00     0.102 A 
ATOM      7  C   UNL     1       2.234   0.181  -1.816  1.00  0.00     0.174 C 
ATOM      8  O   UNL     1       3.124   0.824  -2.364  1.00  0.00    -0.294 OA
ATOM      9  C   UNL     1       2.295  -1.319  -1.769  1.00  0.00     0.131 C 
ATOM     10  C   UNL     1       1.706  -1.798  -0.453  1.00  0.00     0.211 C 
ATOM     11  O   UNL     1       0.334  -1.373  -0.363  1.00  0.00    -0.484 OA
ENDROOT
BRANCH   1  12
ATOM     12  O   UNL     1       1.578   3.047  -1.984  1.00  0.00    -0.496 OA
ATOM     13  C   UNL     1       2.559   3.601  -1.105  1.00  0.00     0.278 C 
ENDBRANCH   1  12
BRANCH   3  14
ATOM     14  O   UNL     1      -2.482   2.389   0.365  1.00  0.00    -0.507 OA
ATOM     15  H   UNL     1      -2.556   3.320   0.099  1.00  0.00     0.293 HD
ENDBRANCH   3  14
BRANCH   4  16
ATOM     16  C   UNL     1      -2.066  -0.404   0.709  1.00  0.00     0.070 C 
BRANCH  16  17
ATOM     17  C   UNL     1      -2.969  -1.119  -0.263  1.00  0.00    -0.023 C 
ATOM     18  C   UNL     1      -4.295  -0.961  -0.448  1.00  0.00    -0.080 C 
ATOM     19  C   UNL     1      -5.029  -1.787  -1.471  1.00  0.00     0.039 C 
ATOM     20  C   UNL     1      -5.165   0.017   0.292  1.00  0.00     0.039 C 
ENDBRANCH  16  17
ENDBRANCH   4  16
BRANCH  10  21
ATOM     21  C   UNL     1       2.459  -1.496   0.840  1.00  0.00    -0.007 A 
ATOM     22  C   UNL     1       3.752  -0.950   0.869  1.00  0.00     0.007 A 
ATOM     23  C   UNL     1       1.849  -1.813   2.068  1.00  0.00     0.007 A 
ATOM     24  C   UNL     1       4.399  -0.707   2.084  1.00  0.00     0.000 A 
ATOM     25  C   UNL     1       2.497  -1.570   3.281  1.00  0.00     0.000 A 
ATOM     26  C   UNL     1       3.772  -1.015   3.288  1.00  0.00     0.000 A 
ENDBRANCH  10  21
TORSDOF 5
