REMARK SMILES COc1cc(OC)c2c(c1/C=C/C(C)(C)O)OC(c1ccccc1)CC2=O
REMARK SMILES IDX 11 1 12 2 10 3 3 4 4 5 5 6 9 7 8 8 17 9 26 10 18 11 25 12
REMARK SMILES IDX 27 13 2 14 1 15 6 16 7 17 19 18 20 19 24 20 21 21 23 22
REMARK SMILES IDX 22 23 13 24 14 25 15 26 16 27
REMARK H PARENT 16 28
ROOT
ATOM      1  C   UNL     1      -2.007   0.076   0.013  1.00  0.00     0.014 C 
ATOM      2  C   UNL     1      -2.036   0.774   1.161  1.00  0.00     0.008 C 
ENDROOT
BRANCH   1   3
ATOM      3  C   UNL     1      -0.927  -0.884  -0.278  1.00  0.00     0.059 A 
ATOM      4  C   UNL     1      -0.891  -2.145   0.353  1.00  0.00     0.133 A 
ATOM      5  C   UNL     1       0.161  -3.020   0.073  1.00  0.00     0.094 A 
ATOM      6  C   UNL     1       1.157  -2.664  -0.845  1.00  0.00     0.137 A 
ATOM      7  C   UNL     1       0.100  -0.521  -1.174  1.00  0.00     0.145 A 
ATOM      8  C   UNL     1       1.138  -1.412  -1.469  1.00  0.00     0.103 A 
ATOM      9  O   UNL     1       0.022   0.733  -1.740  1.00  0.00    -0.484 OA
ATOM     10  C   UNL     1       2.158  -0.993  -2.465  1.00  0.00     0.174 C 
ATOM     11  C   UNL     1       1.303   1.302  -2.067  1.00  0.00     0.211 C 
ATOM     12  C   UNL     1       2.015   0.386  -3.048  1.00  0.00     0.131 C 
ATOM     13  O   UNL     1       3.046  -1.741  -2.862  1.00  0.00    -0.294 OA
BRANCH   4  14
ATOM     14  O   UNL     1      -1.925  -2.431   1.211  1.00  0.00    -0.496 OA
ATOM     15  C   UNL     1      -1.833  -3.624   1.979  1.00  0.00     0.278 C 
ENDBRANCH   4  14
BRANCH   6  16
ATOM     16  O   UNL     1       2.179  -3.559  -1.027  1.00  0.00    -0.496 OA
ATOM     17  C   UNL     1       1.850  -4.495  -2.055  1.00  0.00     0.278 C 
ENDBRANCH   6  16
BRANCH  11  18
ATOM     18  C   UNL     1       2.042   1.756  -0.812  1.00  0.00    -0.007 A 
ATOM     19  C   UNL     1       3.383   1.441  -0.547  1.00  0.00     0.007 A 
ATOM     20  C   UNL     1       1.352   2.551   0.122  1.00  0.00     0.007 A 
ATOM     21  C   UNL     1       4.004   1.891   0.622  1.00  0.00     0.000 A 
ATOM     22  C   UNL     1       1.972   2.999   1.289  1.00  0.00     0.000 A 
ATOM     23  C   UNL     1       3.300   2.668   1.539  1.00  0.00     0.000 A 
ENDBRANCH  11  18
ENDBRANCH   1   3
BRANCH   2  24
ATOM     24  C   UNL     1      -3.075   1.777   1.595  1.00  0.00     0.077 C 
ATOM     25  C   UNL     1      -2.417   3.136   1.843  1.00  0.00     0.046 C 
ATOM     26  C   UNL     1      -4.268   1.943   0.649  1.00  0.00     0.046 C 
BRANCH  24  27
ATOM     27  O   UNL     1      -3.585   1.316   2.848  1.00  0.00    -0.386 OA
ATOM     28  H   UNL     1      -3.837   0.384   2.721  1.00  0.00     0.211 HD
ENDBRANCH  24  27
ENDBRANCH   2  24
TORSDOF 6
