REMARK SMILES C=C(C)/C=C/c1c(OC)cc(O)c2c1O[C@H](c1ccccc1)CC2=O
REMARK SMILES IDX 7 1 10 2 11 3 13 4 14 5 6 6 15 7 16 8 23 9 24 10 25 11 8 12
REMARK SMILES IDX 9 13 5 14 4 15 2 16 1 17 3 18 12 19 17 21 18 22 22 23 19 24
REMARK SMILES IDX 21 25 20 26
REMARK H PARENT 12 20
ROOT
ATOM      1  C   UNL     1      -2.153   2.056  -0.481  1.00  0.00     0.133 A 
ATOM      2  C   UNL     1      -1.651   3.226  -1.064  1.00  0.00     0.094 A 
ATOM      3  C   UNL     1      -0.277   3.422  -1.182  1.00  0.00     0.133 A 
ATOM      4  C   UNL     1       0.617   2.452  -0.726  1.00  0.00     0.102 A 
ATOM      5  C   UNL     1       0.132   1.273  -0.158  1.00  0.00     0.145 A 
ATOM      6  C   UNL     1      -1.255   1.060  -0.029  1.00  0.00     0.060 A 
ATOM      7  O   UNL     1       0.981   0.301   0.320  1.00  0.00    -0.484 OA
ATOM      8  C   UNL     1       2.229   0.240  -0.391  1.00  0.00     0.211 C 
ATOM      9  C   UNL     1       2.952   1.571  -0.237  1.00  0.00     0.131 C 
ATOM     10  C   UNL     1       2.076   2.653  -0.803  1.00  0.00     0.174 C 
ATOM     11  O   UNL     1       2.526   3.695  -1.274  1.00  0.00    -0.294 OA
ENDROOT
BRANCH   1  12
ATOM     12  O   UNL     1      -3.490   1.802  -0.303  1.00  0.00    -0.496 OA
ATOM     13  C   UNL     1      -4.416   2.804  -0.702  1.00  0.00     0.278 C 
ENDBRANCH   1  12
BRANCH   6  14
ATOM     14  C   UNL     1      -1.716  -0.200   0.590  1.00  0.00     0.016 C 
ATOM     15  C   UNL     1      -2.515  -1.076  -0.043  1.00  0.00     0.004 C 
BRANCH  15  16
ATOM     16  C   UNL     1      -2.968  -2.354   0.487  1.00  0.00    -0.058 C 
ATOM     17  C   UNL     1      -3.776  -3.135  -0.250  1.00  0.00     0.012 C 
ATOM     18  C   UNL     1      -2.523  -2.788   1.858  1.00  0.00     0.043 C 
ENDBRANCH  15  16
ENDBRANCH   6  14
BRANCH   3  19
ATOM     19  O   UNL     1       0.127   4.600  -1.751  1.00  0.00    -0.507 OA
ATOM     20  H   UNL     1       1.111   4.626  -1.743  1.00  0.00     0.293 HD
ENDBRANCH   3  19
BRANCH   8  21
ATOM     21  C   UNL     1       2.971  -0.984   0.122  1.00  0.00    -0.007 A 
ATOM     22  C   UNL     1       2.340  -2.239   0.024  1.00  0.00     0.007 A 
ATOM     23  C   UNL     1       4.260  -0.937   0.673  1.00  0.00     0.007 A 
ATOM     24  C   UNL     1       2.972  -3.403   0.464  1.00  0.00     0.000 A 
ATOM     25  C   UNL     1       4.894  -2.103   1.113  1.00  0.00     0.000 A 
ATOM     26  C   UNL     1       4.251  -3.334   1.009  1.00  0.00     0.000 A 
ENDBRANCH   8  21
TORSDOF 5
