REMARK SMILES COc1ccc([C@@H]2CC(=O)c3c(O)c4c(c(CC=C(C)C)c3O2)OC(C)(C)C=C4)cc1
REMARK SMILES IDX 7 1 8 2 9 3 10 4 11 5 22 6 23 7 16 8 15 9 14 10 12 11 29 12
REMARK SMILES IDX 28 13 25 14 24 15 26 16 27 17 6 18 3 19 4 20 31 21 5 22
REMARK SMILES IDX 30 23 2 24 1 25 17 26 18 27 19 28 20 29 21 30 13 31
REMARK H PARENT 13 32
ROOT
ATOM      1  C   UNL     1       1.554  -0.642   1.506  1.00  0.00     0.211 C 
ATOM      2  C   UNL     1       1.773  -2.089   1.916  1.00  0.00     0.131 C 
ATOM      3  C   UNL     1       0.438  -2.775   1.923  1.00  0.00     0.174 C 
ATOM      4  O   UNL     1       0.189  -3.732   2.653  1.00  0.00    -0.294 OA
ATOM      5  C   UNL     1      -0.580  -2.295   0.963  1.00  0.00     0.103 A 
ATOM      6  C   UNL     1      -0.256  -1.216   0.134  1.00  0.00     0.142 A 
ATOM      7  O   UNL     1       0.962  -0.585   0.200  1.00  0.00    -0.484 OA
ATOM      8  C   UNL     1      -1.168  -0.760  -0.832  1.00  0.00     0.042 A 
ATOM      9  C   UNL     1      -2.434  -1.379  -0.915  1.00  0.00     0.138 A 
ATOM     10  C   UNL     1      -2.770  -2.455  -0.078  1.00  0.00     0.060 A 
ATOM     11  C   UNL     1      -1.832  -2.914   0.859  1.00  0.00     0.141 A 
ATOM     12  C   UNL     1      -4.081  -3.081  -0.213  1.00  0.00     0.015 C 
ATOM     13  C   UNL     1      -4.968  -2.530  -1.045  1.00  0.00     0.021 C 
ATOM     14  C   UNL     1      -4.671  -1.298  -1.860  1.00  0.00     0.122 C 
ATOM     15  O   UNL     1      -3.290  -0.886  -1.865  1.00  0.00    -0.483 OA
ATOM     16  C   UNL     1      -5.033  -1.562  -3.326  1.00  0.00     0.061 C 
ATOM     17  C   UNL     1      -5.491  -0.116  -1.331  1.00  0.00     0.061 C 
ENDROOT
BRANCH   1  18
ATOM     18  C   UNL     1       2.867   0.116   1.478  1.00  0.00    -0.007 A 
ATOM     19  C   UNL     1       5.318   1.516   1.463  1.00  0.00     0.118 A 
ATOM     20  C   UNL     1       4.970   0.699   0.388  1.00  0.00     0.047 A 
ATOM     21  C   UNL     1       4.442   1.627   2.544  1.00  0.00     0.047 A 
ATOM     22  C   UNL     1       3.756   0.002   0.398  1.00  0.00     0.011 A 
ATOM     23  C   UNL     1       3.228   0.934   2.556  1.00  0.00     0.011 A 
BRANCH  19  24
ATOM     24  O   UNL     1       6.467   2.247   1.580  1.00  0.00    -0.497 OA
ATOM     25  C   UNL     1       7.387   2.176   0.498  1.00  0.00     0.278 C 
ENDBRANCH  19  24
ENDBRANCH   1  18
BRANCH   8  26
ATOM     26  C   UNL     1      -0.822   0.420  -1.721  1.00  0.00     0.070 C 
BRANCH  26  27
ATOM     27  C   UNL     1      -1.240   1.731  -1.107  1.00  0.00    -0.023 C 
ATOM     28  C   UNL     1      -0.460   2.745  -0.681  1.00  0.00    -0.080 C 
ATOM     29  C   UNL     1      -1.077   3.988  -0.093  1.00  0.00     0.039 C 
ATOM     30  C   UNL     1       1.043   2.769  -0.727  1.00  0.00     0.039 C 
ENDBRANCH  26  27
ENDBRANCH   8  26
BRANCH  11  31
ATOM     31  O   UNL     1      -2.177  -3.978   1.660  1.00  0.00    -0.506 OA
ATOM     32  H   UNL     1      -1.415  -4.194   2.243  1.00  0.00     0.293 HD
ENDBRANCH  11  31
TORSDOF 5
