REMARK SMILES COc1c(O)cc2oc(-c3ccc(O)c(O)c3)c(OC)c(=O)c2c1O
REMARK SMILES IDX 3 1 4 2 6 3 7 4 23 5 24 6 21 7 22 8 18 9 9 10 8 11 2 12 1 13
REMARK SMILES IDX 5 14 25 16 19 18 20 19 10 20 11 21 17 22 12 23 15 24 13 25
REMARK SMILES IDX 16 26 14 28
REMARK H PARENT 5 15 25 17 16 27 14 29
ROOT
ATOM      1  C   UNL     1       3.939  -0.230   0.599  1.00  0.00     0.203 A 
ATOM      2  C   UNL     1       3.447  -1.532   0.607  1.00  0.00     0.165 A 
ATOM      3  C   UNL     1       2.094  -1.768   0.421  1.00  0.00     0.098 A 
ATOM      4  C   UNL     1       1.224  -0.686   0.250  1.00  0.00     0.146 A 
ATOM      5  C   UNL     1       1.694   0.629   0.272  1.00  0.00     0.115 A 
ATOM      6  C   UNL     1       3.063   0.854   0.469  1.00  0.00     0.177 A 
ATOM      7  C   UNL     1       0.710   1.721   0.087  1.00  0.00     0.239 C 
ATOM      8  O   UNL     1       1.050   2.896   0.022  1.00  0.00    -0.285 OA
ATOM      9  C   UNL     1      -0.730   1.323  -0.031  1.00  0.00     0.210 C 
ATOM     10  C   UNL     1      -1.020   0.008  -0.056  1.00  0.00     0.180 C 
ATOM     11  O   UNL     1      -0.095  -1.009   0.074  1.00  0.00    -0.452 OA
ENDROOT
BRANCH   1  12
ATOM     12  O   UNL     1       5.284  -0.010   0.774  1.00  0.00    -0.490 OA
ATOM     13  C   UNL     1       5.934   0.031  -0.503  1.00  0.00     0.278 C 
ENDBRANCH   1  12
BRANCH   2  14
ATOM     14  O   UNL     1       4.275  -2.598   0.806  1.00  0.00    -0.504 OA
ATOM     15  H   UNL     1       5.142  -2.231   1.064  1.00  0.00     0.293 HD
ENDBRANCH   2  14
BRANCH   6  16
ATOM     16  O   UNL     1       3.582   2.116   0.554  1.00  0.00    -0.504 OA
ATOM     17  H   UNL     1       4.504   2.037   0.857  1.00  0.00     0.293 HD
ENDBRANCH   6  16
BRANCH   9  18
ATOM     18  O   UNL     1      -1.734   2.275  -0.157  1.00  0.00    -0.490 OA
ATOM     19  C   UNL     1      -1.616   3.388   0.724  1.00  0.00     0.278 C 
ENDBRANCH   9  18
BRANCH  10  20
ATOM     20  C   UNL     1      -2.400  -0.502  -0.197  1.00  0.00     0.025 A 
ATOM     21  C   UNL     1      -2.910  -1.403   0.757  1.00  0.00     0.016 A 
ATOM     22  C   UNL     1      -3.205  -0.139  -1.286  1.00  0.00     0.062 A 
ATOM     23  C   UNL     1      -4.204  -1.921   0.639  1.00  0.00     0.051 A 
ATOM     24  C   UNL     1      -4.487  -0.660  -1.397  1.00  0.00     0.158 A 
ATOM     25  C   UNL     1      -4.987  -1.543  -0.443  1.00  0.00     0.157 A 
BRANCH  24  26
ATOM     26  O   UNL     1      -5.264  -0.300  -2.462  1.00  0.00    -0.504 OA
ATOM     27  H   UNL     1      -6.106  -0.777  -2.324  1.00  0.00     0.293 HD
ENDBRANCH  24  26
BRANCH  25  28
ATOM     28  O   UNL     1      -6.258  -2.015  -0.617  1.00  0.00    -0.504 OA
ATOM     29  H   UNL     1      -6.464  -2.610   0.124  1.00  0.00     0.293 HD
ENDBRANCH  25  28
ENDBRANCH  10  20
TORSDOF 7
