REMARK SMILES CC(C)=CCc1cc(-c2cc(=O)c3c(O)cc(O)cc3o2)ccc1O
REMARK SMILES IDX 6 1 7 2 8 3 22 4 23 5 24 6 5 7 4 8 2 9 1 10 3 11 25 12 9 14
REMARK SMILES IDX 10 15 21 16 11 17 20 18 12 19 13 20 19 21 14 22 17 23 16 24
REMARK SMILES IDX 15 25 18 27
REMARK H PARENT 25 13 15 26 18 28
ROOT
ATOM      1  C   UNL     1       2.074  -0.985   0.892  1.00  0.00    -0.002 A 
ATOM      2  C   UNL     1       0.824  -0.964   0.244  1.00  0.00     0.019 A 
ATOM      3  C   UNL     1      -0.362  -0.701   0.950  1.00  0.00     0.018 A 
ATOM      4  C   UNL     1      -0.278  -0.437   2.323  1.00  0.00     0.016 A 
ATOM      5  C   UNL     1       0.955  -0.450   2.980  1.00  0.00     0.047 A 
ATOM      6  C   UNL     1       2.119  -0.723   2.264  1.00  0.00     0.119 A 
ENDROOT
BRANCH   1   7
ATOM      7  C   UNL     1       3.328  -1.249   0.088  1.00  0.00     0.066 C 
BRANCH   7   8
ATOM      8  C   UNL     1       3.846  -0.008  -0.591  1.00  0.00    -0.023 C 
ATOM      9  C   UNL     1       4.992   0.659  -0.350  1.00  0.00    -0.080 C 
ATOM     10  C   UNL     1       5.348   1.886  -1.150  1.00  0.00     0.039 C 
ATOM     11  C   UNL     1       6.004   0.297   0.702  1.00  0.00     0.039 C 
ENDBRANCH   7   8
ENDBRANCH   1   7
BRANCH   6  12
ATOM     12  O   UNL     1       3.324  -0.738   2.906  1.00  0.00    -0.508 OA
ATOM     13  H   UNL     1       3.192  -0.468   3.829  1.00  0.00     0.293 HD
ENDBRANCH   6  12
BRANCH   3  14
ATOM     14  C   UNL     1      -1.673  -0.670   0.272  1.00  0.00     0.138 C 
ATOM     15  C   UNL     1      -2.022  -1.601  -0.627  1.00  0.00     0.100 C 
ATOM     16  O   UNL     1      -2.493   0.375   0.671  1.00  0.00    -0.456 OA
ATOM     17  C   UNL     1      -3.347  -1.520  -1.259  1.00  0.00     0.197 C 
ATOM     18  C   UNL     1      -3.736   0.486   0.101  1.00  0.00     0.146 A 
ATOM     19  O   UNL     1      -3.715  -2.341  -2.092  1.00  0.00    -0.289 OA
ATOM     20  C   UNL     1      -4.215  -0.410  -0.851  1.00  0.00     0.107 A 
ATOM     21  C   UNL     1      -4.532   1.554   0.515  1.00  0.00     0.094 A 
ATOM     22  C   UNL     1      -5.494  -0.241  -1.392  1.00  0.00     0.134 A 
ATOM     23  C   UNL     1      -5.803   1.713  -0.030  1.00  0.00     0.123 A 
ATOM     24  C   UNL     1      -6.294   0.824  -0.983  1.00  0.00     0.093 A 
BRANCH  22  25
ATOM     25  O   UNL     1      -6.025  -1.085  -2.330  1.00  0.00    -0.507 OA
ATOM     26  H   UNL     1      -5.360  -1.784  -2.525  1.00  0.00     0.293 HD
ENDBRANCH  22  25
BRANCH  23  27
ATOM     27  O   UNL     1      -6.549   2.770   0.403  1.00  0.00    -0.508 OA
ATOM     28  H   UNL     1      -7.404   2.762  -0.062  1.00  0.00     0.293 HD
ENDBRANCH  23  27
ENDBRANCH   3  14
TORSDOF 6
