REMARK SMILES CC(=O)O[C@H]1CC[C@]2(C)[C@H]3CC=C4[C@@H]5CC(C)(C)CC[C@]5(C)CC[C@@]4(C)[C@]3(C)CC[C@H]2C1(C)C
REMARK SMILES IDX 4 1 2 2 3 3 1 4 5 5 6 6 32 7 7 8 31 9 8 10 30 11 10 12 29 13
REMARK SMILES IDX 27 14 11 15 25 16 12 17 13 18 24 19 14 20 23 21 21 22 15 23
REMARK SMILES IDX 20 24 16 25 19 26 33 27 34 28 9 29 28 30 26 31 22 32 17 33
REMARK SMILES IDX 18 34
REMARK H PARENT
ROOT
ATOM      1  O   UNL     1       5.681  -1.579  -0.175  1.00  0.00    -0.462 OA
ENDROOT
BRANCH   1   2
ATOM      2  C   UNL     1       6.643  -2.431  -0.621  1.00  0.00     0.302 C 
ATOM      3  O   UNL     1       7.209  -2.369  -1.703  1.00  0.00    -0.253 OA
ATOM      4  C   UNL     1       6.915  -3.476   0.417  1.00  0.00     0.139 C 
ENDBRANCH   1   2
BRANCH   1   5
ATOM      5  C   UNL     1       5.294  -0.509  -1.061  1.00  0.00     0.182 C 
ATOM      6  C   UNL     1       4.271  -1.035  -2.067  1.00  0.00     0.046 C 
ATOM      7  C   UNL     1       4.727   0.709  -0.251  1.00  0.00     0.005 C 
ATOM      8  C   UNL     1       2.976  -1.536  -1.416  1.00  0.00     0.011 C 
ATOM      9  C   UNL     1       3.145   0.729  -0.258  1.00  0.00     0.005 C 
ATOM     10  C   UNL     1       2.442  -0.672  -0.218  1.00  0.00    -0.025 C 
ATOM     11  C   UNL     1       2.526   1.706   0.761  1.00  0.00     0.005 C 
ATOM     12  C   UNL     1       0.876  -0.444  -0.423  1.00  0.00     0.006 C 
ATOM     13  C   UNL     1       1.037   1.933   0.488  1.00  0.00     0.008 C 
ATOM     14  C   UNL     1       0.168   0.641   0.486  1.00  0.00    -0.020 C 
ATOM     15  C   UNL     1       0.044  -1.747  -0.509  1.00  0.00     0.032 C 
ATOM     16  C   UNL     1      -1.329   0.922  -0.113  1.00  0.00    -0.006 C 
ATOM     17  C   UNL     1      -1.445  -1.562  -0.496  1.00  0.00    -0.027 C 
ATOM     18  C   UNL     1      -2.091  -0.397  -0.295  1.00  0.00    -0.064 C 
ATOM     19  C   UNL     1      -2.175   1.906   0.763  1.00  0.00     0.012 C 
ATOM     20  C   UNL     1      -3.610  -0.403  -0.089  1.00  0.00     0.022 C 
ATOM     21  C   UNL     1      -3.158   1.313   1.787  1.00  0.00     0.008 C 
ATOM     22  C   UNL     1      -3.942   0.035   1.367  1.00  0.00    -0.026 C 
ATOM     23  C   UNL     1      -4.380   0.382  -1.172  1.00  0.00     0.015 C 
ATOM     24  C   UNL     1      -5.471   0.238   1.563  1.00  0.00     0.008 C 
ATOM     25  C   UNL     1      -5.902   0.464  -0.943  1.00  0.00    -0.035 C 
ATOM     26  C   UNL     1      -6.151   1.044   0.462  1.00  0.00     0.007 C 
ATOM     27  C   UNL     1       5.336   0.762   1.167  1.00  0.00     0.015 C 
ATOM     28  C   UNL     1       5.213   1.997  -0.979  1.00  0.00     0.015 C 
ATOM     29  C   UNL     1       2.755  -1.443   1.087  1.00  0.00     0.012 C 
ATOM     30  C   UNL     1       0.060   0.162   1.956  1.00  0.00     0.012 C 
ATOM     31  C   UNL     1      -1.222   1.594  -1.524  1.00  0.00     0.017 C 
ATOM     32  C   UNL     1      -3.558  -1.103   2.354  1.00  0.00     0.012 C 
ATOM     33  C   UNL     1      -6.568  -0.914  -1.115  1.00  0.00     0.011 C 
ATOM     34  C   UNL     1      -6.517   1.416  -1.988  1.00  0.00     0.011 C 
ENDBRANCH   1   5
TORSDOF 2
