REMARK SMILES COc1cc(-c2oc3cc(O)c(OC)c(O)c3c(=O)c2OC)ccc1O
REMARK SMILES IDX 6 1 7 2 8 3 9 4 10 5 12 6 15 7 17 8 18 9 19 10 20 11 5 12
REMARK SMILES IDX 3 13 4 14 25 15 24 16 23 17 2 18 1 19 26 20 21 22 22 23
REMARK SMILES IDX 11 24 16 26 13 28 14 29
REMARK H PARENT 26 21 11 25 16 27
ROOT
ATOM      1  C   UNL     1       0.593   0.677  -0.348  1.00  0.00     0.180 C 
ATOM      2  O   UNL     1       0.236   0.169   0.889  1.00  0.00    -0.452 OA
ATOM      3  C   UNL     1      -1.085  -0.076   1.149  1.00  0.00     0.146 A 
ATOM      4  C   UNL     1      -1.387  -0.584   2.407  1.00  0.00     0.098 A 
ATOM      5  C   UNL     1      -2.712  -0.851   2.725  1.00  0.00     0.165 A 
ATOM      6  C   UNL     1      -3.763  -0.622   1.821  1.00  0.00     0.203 A 
ATOM      7  C   UNL     1      -3.447  -0.110   0.556  1.00  0.00     0.177 A 
ATOM      8  C   UNL     1      -2.101   0.160   0.227  1.00  0.00     0.115 A 
ATOM      9  C   UNL     1      -1.719   0.692  -1.092  1.00  0.00     0.239 C 
ATOM     10  O   UNL     1      -2.596   0.923  -1.921  1.00  0.00    -0.285 OA
ATOM     11  C   UNL     1      -0.269   0.926  -1.354  1.00  0.00     0.210 C 
ENDROOT
BRANCH   1  12
ATOM     12  C   UNL     1       2.052   0.887  -0.472  1.00  0.00     0.025 A 
ATOM     13  C   UNL     1       4.317   0.025  -0.225  1.00  0.00     0.161 A 
ATOM     14  C   UNL     1       2.935  -0.157  -0.136  1.00  0.00     0.062 A 
ATOM     15  C   UNL     1       4.808   1.264  -0.650  1.00  0.00     0.157 A 
ATOM     16  C   UNL     1       3.957   2.310  -0.977  1.00  0.00     0.051 A 
ATOM     17  C   UNL     1       2.578   2.122  -0.883  1.00  0.00     0.016 A 
BRANCH  13  18
ATOM     18  O   UNL     1       5.278  -0.909   0.067  1.00  0.00    -0.493 OA
ATOM     19  C   UNL     1       4.820  -2.172   0.534  1.00  0.00     0.278 C 
ENDBRANCH  13  18
BRANCH  15  20
ATOM     20  O   UNL     1       6.156   1.473  -0.749  1.00  0.00    -0.504 OA
ATOM     21  H   UNL     1       6.563   0.628  -0.475  1.00  0.00     0.293 HD
ENDBRANCH  15  20
ENDBRANCH   1  12
BRANCH  11  22
ATOM     22  O   UNL     1       0.165   1.425  -2.573  1.00  0.00    -0.490 OA
ATOM     23  C   UNL     1      -0.359   0.736  -3.704  1.00  0.00     0.278 C 
ENDBRANCH  11  22
BRANCH   5  24
ATOM     24  O   UNL     1      -2.977  -1.354   3.972  1.00  0.00    -0.504 OA
ATOM     25  H   UNL     1      -3.949  -1.466   3.999  1.00  0.00     0.293 HD
ENDBRANCH   5  24
BRANCH   7  26
ATOM     26  O   UNL     1      -4.445   0.121  -0.358  1.00  0.00    -0.504 OA
ATOM     27  H   UNL     1      -4.050   0.497  -1.177  1.00  0.00     0.293 HD
ENDBRANCH   7  26
BRANCH   6  28
ATOM     28  O   UNL     1      -4.991  -0.952   2.336  1.00  0.00    -0.490 OA
ATOM     29  C   UNL     1      -6.143  -0.719   1.538  1.00  0.00     0.278 C 
ENDBRANCH   6  28
TORSDOF 7
