REMARK SMILES COc1c(O)cc(C2CC(=O)c3c(O)cc(O)cc3O2)cc1CC=C(C)C
REMARK SMILES IDX 3 1 4 2 6 3 7 4 21 5 22 6 2 7 1 8 5 9 23 11 24 12 25 13
REMARK SMILES IDX 26 14 27 15 8 16 9 17 20 18 10 19 19 20 11 21 12 22 18 23
REMARK SMILES IDX 13 24 16 25 15 26 14 27 17 29
REMARK H PARENT 5 10 14 28 17 30
ROOT
ATOM      1  C   UNL     1      -2.017  -2.832   0.049  1.00  0.00     0.163 A 
ATOM      2  C   UNL     1      -1.113  -3.346  -0.885  1.00  0.00     0.158 A 
ATOM      3  C   UNL     1       0.024  -2.638  -1.252  1.00  0.00     0.057 A 
ATOM      4  C   UNL     1       0.298  -1.402  -0.651  1.00  0.00    -0.003 A 
ATOM      5  C   UNL     1      -0.594  -0.908   0.319  1.00  0.00     0.015 A 
ATOM      6  C   UNL     1      -1.755  -1.615   0.689  1.00  0.00     0.002 A 
ENDROOT
BRANCH   1   7
ATOM      7  O   UNL     1      -3.121  -3.584   0.366  1.00  0.00    -0.493 OA
ATOM      8  C   UNL     1      -4.209  -3.239  -0.499  1.00  0.00     0.278 C 
ENDBRANCH   1   7
BRANCH   2   9
ATOM      9  O   UNL     1      -1.321  -4.571  -1.455  1.00  0.00    -0.504 OA
ATOM     10  H   UNL     1      -2.045  -4.976  -0.942  1.00  0.00     0.293 HD
ENDBRANCH   2   9
BRANCH   6  11
ATOM     11  C   UNL     1      -2.648  -1.057   1.774  1.00  0.00     0.067 C 
BRANCH  11  12
ATOM     12  C   UNL     1      -3.330   0.222   1.361  1.00  0.00    -0.023 C 
ATOM     13  C   UNL     1      -3.131   1.467   1.839  1.00  0.00    -0.080 C 
ATOM     14  C   UNL     1      -2.131   1.845   2.896  1.00  0.00     0.039 C 
ATOM     15  C   UNL     1      -3.935   2.627   1.310  1.00  0.00     0.039 C 
ENDBRANCH  11  12
ENDBRANCH   6  11
BRANCH   4  16
ATOM     16  C   UNL     1       1.526  -0.613  -1.066  1.00  0.00     0.211 C 
ATOM     17  C   UNL     1       1.147   0.477  -2.059  1.00  0.00     0.131 C 
ATOM     18  O   UNL     1       2.132  -0.050   0.109  1.00  0.00    -0.484 OA
ATOM     19  C   UNL     1       2.395   1.219  -2.438  1.00  0.00     0.174 C 
ATOM     20  C   UNL     1       3.229   0.722  -0.171  1.00  0.00     0.138 A 
ATOM     21  O   UNL     1       2.552   1.753  -3.534  1.00  0.00    -0.294 OA
ATOM     22  C   UNL     1       3.433   1.352  -1.400  1.00  0.00     0.102 A 
ATOM     23  C   UNL     1       4.156   0.887   0.857  1.00  0.00     0.093 A 
ATOM     24  C   UNL     1       4.584   2.121  -1.609  1.00  0.00     0.133 A 
ATOM     25  C   UNL     1       5.297   1.656   0.637  1.00  0.00     0.123 A 
ATOM     26  C   UNL     1       5.523   2.271  -0.591  1.00  0.00     0.093 A 
BRANCH  24  27
ATOM     27  O   UNL     1       4.848   2.763  -2.788  1.00  0.00    -0.507 OA
ATOM     28  H   UNL     1       4.102   2.589  -3.406  1.00  0.00     0.293 HD
ENDBRANCH  24  27
BRANCH  25  29
ATOM     29  O   UNL     1       6.182   1.782   1.666  1.00  0.00    -0.508 OA
ATOM     30  H   UNL     1       6.924   2.340   1.376  1.00  0.00     0.293 HD
ENDBRANCH  25  29
ENDBRANCH   4  16
TORSDOF 7
