REMARK SMILES COc1cc(O)c2c(c1)OC(c1ccc(O)c(O)c1)CC2=O
REMARK SMILES IDX 3 1 9 2 8 3 10 4 11 5 20 6 21 7 22 8 7 9 5 10 4 11 2 12 1 13
REMARK SMILES IDX 6 14 12 16 13 17 19 18 14 19 17 20 15 21 18 22 16 24
REMARK H PARENT 6 15 18 23 16 25
ROOT
ATOM      1  C   UNL     1      -2.809   0.577  -1.090  1.00  0.00     0.126 A 
ATOM      2  C   UNL     1      -1.769  -0.223  -1.564  1.00  0.00     0.093 A 
ATOM      3  C   UNL     1      -1.004  -0.991  -0.685  1.00  0.00     0.138 A 
ATOM      4  O   UNL     1       0.003  -1.721  -1.263  1.00  0.00    -0.484 OA
ATOM      5  C   UNL     1       1.077  -2.055  -0.363  1.00  0.00     0.211 C 
ATOM      6  C   UNL     1       0.521  -2.768   0.859  1.00  0.00     0.131 C 
ATOM      7  C   UNL     1      -0.492  -1.899   1.552  1.00  0.00     0.174 C 
ATOM      8  O   UNL     1      -0.666  -1.999   2.762  1.00  0.00    -0.294 OA
ATOM      9  C   UNL     1      -1.291  -0.997   0.682  1.00  0.00     0.102 A 
ATOM     10  C   UNL     1      -2.333  -0.191   1.158  1.00  0.00     0.133 A 
ATOM     11  C   UNL     1      -3.087   0.597   0.277  1.00  0.00     0.093 A 
ENDROOT
BRANCH   1  12
ATOM     12  O   UNL     1      -3.469   1.286  -2.056  1.00  0.00    -0.496 OA
ATOM     13  C   UNL     1      -4.541   2.119  -1.634  1.00  0.00     0.278 C 
ENDBRANCH   1  12
BRANCH  10  14
ATOM     14  O   UNL     1      -2.642  -0.162   2.488  1.00  0.00    -0.507 OA
ATOM     15  H   UNL     1      -3.354   0.472   2.665  1.00  0.00     0.293 HD
ENDBRANCH  10  14
BRANCH   5  16
ATOM     16  C   UNL     1       2.006  -0.860  -0.165  1.00  0.00    -0.003 A 
ATOM     17  C   UNL     1       2.437  -0.142  -1.303  1.00  0.00     0.011 A 
ATOM     18  C   UNL     1       2.484  -0.460   1.092  1.00  0.00     0.057 A 
ATOM     19  C   UNL     1       3.302   0.952  -1.193  1.00  0.00     0.050 A 
ATOM     20  C   UNL     1       3.345   0.627   1.192  1.00  0.00     0.157 A 
ATOM     21  C   UNL     1       3.751   1.331   0.062  1.00  0.00     0.157 A 
BRANCH  20  22
ATOM     22  O   UNL     1       3.800   1.002   2.424  1.00  0.00    -0.504 OA
ATOM     23  H   UNL     1       4.371   1.776   2.250  1.00  0.00     0.293 HD
ENDBRANCH  20  22
BRANCH  21  24
ATOM     24  O   UNL     1       4.598   2.389   0.240  1.00  0.00    -0.504 OA
ATOM     25  H   UNL     1       4.782   2.778  -0.633  1.00  0.00     0.293 HD
ENDBRANCH  21  24
ENDBRANCH   5  16
TORSDOF 5
