REMARK SMILES COc1cc(-c2cc(=O)c3c(O)cc(O)cc3o2)c(OC)c(OC)c1O
REMARK SMILES IDX 6 1 7 2 8 3 9 4 10 5 17 6 18 7 16 8 14 9 13 10 11 11 5 12
REMARK SMILES IDX 3 13 4 14 25 15 22 16 19 17 2 18 1 19 26 20 23 22 24 23
REMARK SMILES IDX 20 24 21 25 12 26 15 28
REMARK H PARENT 26 21 12 27 15 29
ROOT
ATOM      1  C   UNL     1      -0.639   0.280   0.234  1.00  0.00     0.142 C 
ATOM      2  C   UNL     1      -1.291   1.438   0.413  1.00  0.00     0.100 C 
ATOM      3  C   UNL     1      -2.738   1.407   0.664  1.00  0.00     0.197 C 
ATOM      4  O   UNL     1      -3.386   2.433   0.842  1.00  0.00    -0.289 OA
ATOM      5  C   UNL     1      -3.382   0.089   0.699  1.00  0.00     0.107 A 
ATOM      6  C   UNL     1      -2.587  -1.040   0.509  1.00  0.00     0.146 A 
ATOM      7  O   UNL     1      -1.234  -0.971   0.292  1.00  0.00    -0.455 OA
ATOM      8  C   UNL     1      -3.162  -2.310   0.539  1.00  0.00     0.094 A 
ATOM      9  C   UNL     1      -4.531  -2.438   0.760  1.00  0.00     0.123 A 
ATOM     10  C   UNL     1      -5.336  -1.318   0.951  1.00  0.00     0.093 A 
ATOM     11  C   UNL     1      -4.756  -0.052   0.921  1.00  0.00     0.134 A 
ENDROOT
BRANCH   1  12
ATOM     12  C   UNL     1       0.818   0.241  -0.008  1.00  0.00     0.067 A 
ATOM     13  C   UNL     1       2.989  -0.662   0.642  1.00  0.00     0.165 A 
ATOM     14  C   UNL     1       1.608  -0.578   0.824  1.00  0.00     0.066 A 
ATOM     15  C   UNL     1       3.588   0.092  -0.374  1.00  0.00     0.204 A 
ATOM     16  C   UNL     1       2.828   0.916  -1.205  1.00  0.00     0.207 A 
ATOM     17  C   UNL     1       1.435   0.961  -1.051  1.00  0.00     0.175 A 
BRANCH  13  18
ATOM     18  O   UNL     1       3.856  -1.426   1.382  1.00  0.00    -0.493 OA
ATOM     19  C   UNL     1       3.284  -2.243   2.399  1.00  0.00     0.278 C 
ENDBRANCH  13  18
BRANCH  15  20
ATOM     20  O   UNL     1       4.948   0.014  -0.546  1.00  0.00    -0.502 OA
ATOM     21  H   UNL     1       5.256  -0.634   0.115  1.00  0.00     0.293 HD
ENDBRANCH  15  20
BRANCH  16  22
ATOM     22  O   UNL     1       3.433   1.639  -2.202  1.00  0.00    -0.490 OA
ATOM     23  C   UNL     1       3.974   2.849  -1.669  1.00  0.00     0.278 C 
ENDBRANCH  16  22
BRANCH  17  24
ATOM     24  O   UNL     1       0.639   1.743  -1.855  1.00  0.00    -0.492 OA
ATOM     25  C   UNL     1       0.728   1.376  -3.233  1.00  0.00     0.278 C 
ENDBRANCH  17  24
ENDBRANCH   1  12
BRANCH  11  26
ATOM     26  O   UNL     1      -5.592   1.014   1.117  1.00  0.00    -0.507 OA
ATOM     27  H   UNL     1      -5.055   1.838   1.072  1.00  0.00     0.293 HD
ENDBRANCH  11  26
BRANCH   9  28
ATOM     28  O   UNL     1      -5.053  -3.698   0.782  1.00  0.00    -0.508 OA
ATOM     29  H   UNL     1      -6.012  -3.637   0.931  1.00  0.00     0.293 HD
ENDBRANCH   9  28
TORSDOF 7
