REMARK SMILES C=C(C)/C=C/c1cc([C@@H]2CC(=O)c3c(O)cc(O)cc3O2)cc(CC=C(C)C)c1OC
REMARK SMILES IDX 29 1 23 2 22 3 8 4 7 5 6 6 30 7 31 8 24 9 25 10 26 11 27 12
REMARK SMILES IDX 28 13 5 14 4 15 2 16 1 17 3 18 9 19 10 20 21 21 11 22 20 23
REMARK SMILES IDX 12 24 13 25 19 26 14 27 17 28 16 29 15 30 18 32
REMARK H PARENT 15 31 18 33
ROOT
ATOM      1  C   UNL     1      -1.913  -1.001  -0.987  1.00  0.00     0.129 A 
ATOM      2  C   UNL     1      -1.393   0.279  -1.252  1.00  0.00    -0.001 A 
ATOM      3  C   UNL     1      -0.086   0.578  -0.833  1.00  0.00     0.015 A 
ATOM      4  C   UNL     1       0.701  -0.369  -0.161  1.00  0.00    -0.006 A 
ATOM      5  C   UNL     1       0.147  -1.628   0.118  1.00  0.00     0.019 A 
ATOM      6  C   UNL     1      -1.163  -1.952  -0.269  1.00  0.00     0.017 A 
ENDROOT
BRANCH   1   7
ATOM      7  O   UNL     1      -3.200  -1.274  -1.388  1.00  0.00    -0.496 OA
ATOM      8  C   UNL     1      -3.194  -2.017  -2.608  1.00  0.00     0.278 C 
ENDBRANCH   1   7
BRANCH   2   9
ATOM      9  C   UNL     1      -2.210   1.357  -1.929  1.00  0.00     0.066 C 
BRANCH   9  10
ATOM     10  C   UNL     1      -2.895   2.254  -0.932  1.00  0.00    -0.023 C 
ATOM     11  C   UNL     1      -2.644   3.550  -0.659  1.00  0.00    -0.080 C 
ATOM     12  C   UNL     1      -1.571   4.384  -1.301  1.00  0.00     0.039 C 
ATOM     13  C   UNL     1      -3.461   4.284   0.373  1.00  0.00     0.039 C 
ENDBRANCH   9  10
ENDBRANCH   2   9
BRANCH   6  14
ATOM     14  C   UNL     1      -1.658  -3.289   0.102  1.00  0.00     0.012 C 
ATOM     15  C   UNL     1      -2.823  -3.485   0.741  1.00  0.00     0.003 C 
BRANCH  15  16
ATOM     16  C   UNL     1      -3.370  -4.772   1.149  1.00  0.00    -0.058 C 
ATOM     17  C   UNL     1      -4.554  -4.824   1.782  1.00  0.00     0.012 C 
ATOM     18  C   UNL     1      -2.601  -6.033   0.857  1.00  0.00     0.043 C 
ENDBRANCH  15  16
ENDBRANCH   6  14
BRANCH   4  19
ATOM     19  C   UNL     1       2.103  -0.033   0.313  1.00  0.00     0.211 C 
ATOM     20  C   UNL     1       2.058   0.812   1.574  1.00  0.00     0.131 C 
ATOM     21  O   UNL     1       2.782   0.669  -0.739  1.00  0.00    -0.484 OA
ATOM     22  C   UNL     1       3.475   1.046   2.018  1.00  0.00     0.174 C 
ATOM     23  C   UNL     1       4.043   1.080  -0.389  1.00  0.00     0.138 A 
ATOM     24  O   UNL     1       3.757   1.085   3.210  1.00  0.00    -0.294 OA
ATOM     25  C   UNL     1       4.470   1.267   0.934  1.00  0.00     0.102 A 
ATOM     26  C   UNL     1       4.904   1.335  -1.459  1.00  0.00     0.093 A 
ATOM     27  C   UNL     1       5.787   1.683   1.171  1.00  0.00     0.133 A 
ATOM     28  C   UNL     1       6.205   1.748  -1.202  1.00  0.00     0.123 A 
ATOM     29  C   UNL     1       6.655   1.918   0.102  1.00  0.00     0.093 A 
BRANCH  27  30
ATOM     30  O   UNL     1       6.245   1.877   2.442  1.00  0.00    -0.507 OA
ATOM     31  H   UNL     1       7.172   2.163   2.427  1.00  0.00     0.293 HD
ENDBRANCH  27  30
BRANCH  28  32
ATOM     32  O   UNL     1       7.084   1.999  -2.213  1.00  0.00    -0.508 OA
ATOM     33  H   UNL     1       6.641   1.847  -3.065  1.00  0.00     0.293 HD
ENDBRANCH  28  32
ENDBRANCH   4  19
TORSDOF 8
