REMARK SMILES COc1cc(-c2cc(=O)c3c(O)cc(O)cc3o2)c(OC)c(OC)c1OC
REMARK SMILES IDX 6 1 7 2 8 3 9 4 10 5 17 6 18 7 16 8 14 9 13 10 11 11 5 12
REMARK SMILES IDX 3 13 4 14 25 15 22 16 19 17 2 18 1 19 26 20 27 21 23 22
REMARK SMILES IDX 24 23 20 24 21 25 12 26 15 28
REMARK H PARENT 12 27 15 29
ROOT
ATOM      1  C   UNL     1      -0.947   0.564  -0.262  1.00  0.00     0.142 C 
ATOM      2  C   UNL     1      -1.363   1.510  -1.117  1.00  0.00     0.100 C 
ATOM      3  C   UNL     1      -2.802   1.784  -1.227  1.00  0.00     0.197 C 
ATOM      4  O   UNL     1      -3.242   2.639  -1.988  1.00  0.00    -0.289 OA
ATOM      5  C   UNL     1      -3.699   0.991  -0.380  1.00  0.00     0.107 A 
ATOM      6  C   UNL     1      -3.137   0.045   0.475  1.00  0.00     0.146 A 
ATOM      7  O   UNL     1      -1.785  -0.174   0.559  1.00  0.00    -0.455 OA
ATOM      8  C   UNL     1      -3.958  -0.727   1.297  1.00  0.00     0.094 A 
ATOM      9  C   UNL     1      -5.337  -0.544   1.255  1.00  0.00     0.123 A 
ATOM     10  C   UNL     1      -5.912   0.397   0.405  1.00  0.00     0.093 A 
ATOM     11  C   UNL     1      -5.087   1.166  -0.413  1.00  0.00     0.134 A 
ENDROOT
BRANCH   1  12
ATOM     12  C   UNL     1       0.486   0.249  -0.096  1.00  0.00     0.067 A 
ATOM     13  C   UNL     1       2.387   0.018   1.419  1.00  0.00     0.165 A 
ATOM     14  C   UNL     1       1.031   0.278   1.201  1.00  0.00     0.066 A 
ATOM     15  C   UNL     1       3.216  -0.263   0.318  1.00  0.00     0.207 A 
ATOM     16  C   UNL     1       2.684  -0.360  -0.976  1.00  0.00     0.208 A 
ATOM     17  C   UNL     1       1.320  -0.098  -1.175  1.00  0.00     0.175 A 
BRANCH  13  18
ATOM     18  O   UNL     1       3.000   0.045   2.646  1.00  0.00    -0.493 OA
ATOM     19  C   UNL     1       2.169   0.176   3.792  1.00  0.00     0.278 C 
ENDBRANCH  13  18
BRANCH  15  20
ATOM     20  O   UNL     1       4.559  -0.477   0.533  1.00  0.00    -0.490 OA
ATOM     21  C   UNL     1       5.261   0.765   0.461  1.00  0.00     0.278 C 
ENDBRANCH  15  20
BRANCH  16  22
ATOM     22  O   UNL     1       3.440  -0.626  -2.092  1.00  0.00    -0.490 OA
ATOM     23  C   UNL     1       4.258  -1.789  -1.970  1.00  0.00     0.278 C 
ENDBRANCH  16  22
BRANCH  17  24
ATOM     24  O   UNL     1       0.794  -0.131  -2.447  1.00  0.00    -0.492 OA
ATOM     25  C   UNL     1       0.470  -1.472  -2.817  1.00  0.00     0.278 C 
ENDBRANCH  17  24
ENDBRANCH   1  12
BRANCH  11  26
ATOM     26  O   UNL     1      -5.704   2.077  -1.228  1.00  0.00    -0.507 OA
ATOM     27  H   UNL     1      -5.009   2.547  -1.743  1.00  0.00     0.293 HD
ENDBRANCH  11  26
BRANCH   9  28
ATOM     28  O   UNL     1      -6.103  -1.319   2.075  1.00  0.00    -0.508 OA
ATOM     29  H   UNL     1      -7.039  -1.091   1.938  1.00  0.00     0.293 HD
ENDBRANCH   9  28
TORSDOF 7
