REMARK SMILES CC(C)=CCc1cc([C@@H]2CC(=O)c3c(O)cc(O)cc3O2)cc(CC=C(C)C)c1O
REMARK SMILES IDX 23 1 22 2 8 3 7 4 6 5 29 6 24 7 25 8 26 9 27 10 28 11 30 12
REMARK SMILES IDX 9 14 10 15 21 16 11 17 20 18 12 19 13 20 19 21 14 22 17 23
REMARK SMILES IDX 16 24 15 25 18 27 5 29 4 30 2 31 1 32 3 33
REMARK H PARENT 30 13 15 26 18 28
ROOT
ATOM      1  C   UNL     1      -2.183  -1.165   0.418  1.00  0.00    -0.002 A 
ATOM      2  C   UNL     1      -0.793  -1.225   0.634  1.00  0.00     0.015 A 
ATOM      3  C   UNL     1       0.061  -0.197   0.211  1.00  0.00    -0.006 A 
ATOM      4  C   UNL     1      -0.496   0.911  -0.440  1.00  0.00     0.015 A 
ATOM      5  C   UNL     1      -1.875   0.992  -0.693  1.00  0.00    -0.002 A 
ATOM      6  C   UNL     1      -2.706  -0.054  -0.264  1.00  0.00     0.122 A 
ENDROOT
BRANCH   1   7
ATOM      7  C   UNL     1      -3.033  -2.308   0.926  1.00  0.00     0.066 C 
BRANCH   7   8
ATOM      8  C   UNL     1      -3.169  -3.409  -0.092  1.00  0.00    -0.023 C 
ATOM      9  C   UNL     1      -2.727  -4.680  -0.011  1.00  0.00    -0.080 C 
ATOM     10  C   UNL     1      -2.973  -5.648  -1.141  1.00  0.00     0.039 C 
ATOM     11  C   UNL     1      -1.966  -5.270   1.144  1.00  0.00     0.039 C 
ENDBRANCH   7   8
ENDBRANCH   1   7
BRANCH   6  12
ATOM     12  O   UNL     1      -4.043   0.062  -0.536  1.00  0.00    -0.507 OA
ATOM     13  H   UNL     1      -4.470  -0.802  -0.444  1.00  0.00     0.293 HD
ENDBRANCH   6  12
BRANCH   3  14
ATOM     14  C   UNL     1       1.548  -0.274   0.501  1.00  0.00     0.211 C 
ATOM     15  C   UNL     1       1.900   0.564   1.723  1.00  0.00     0.131 C 
ATOM     16  O   UNL     1       2.269   0.178  -0.658  1.00  0.00    -0.484 OA
ATOM     17  C   UNL     1       3.375   0.433   1.966  1.00  0.00     0.174 C 
ATOM     18  C   UNL     1       3.628   0.184  -0.475  1.00  0.00     0.138 A 
ATOM     19  O   UNL     1       3.878   0.500   3.085  1.00  0.00    -0.294 OA
ATOM     20  C   UNL     1       4.236   0.283   0.779  1.00  0.00     0.102 A 
ATOM     21  C   UNL     1       4.409   0.113  -1.629  1.00  0.00     0.093 A 
ATOM     22  C   UNL     1       5.631   0.273   0.880  1.00  0.00     0.133 A 
ATOM     23  C   UNL     1       5.797   0.107  -1.513  1.00  0.00     0.123 A 
ATOM     24  C   UNL     1       6.413   0.180  -0.267  1.00  0.00     0.093 A 
BRANCH  22  25
ATOM     25  O   UNL     1       6.292   0.361   2.076  1.00  0.00    -0.507 OA
ATOM     26  H   UNL     1       5.622   0.439   2.793  1.00  0.00     0.293 HD
ENDBRANCH  22  25
BRANCH  23  27
ATOM     27  O   UNL     1       6.598   0.028  -2.614  1.00  0.00    -0.508 OA
ATOM     28  H   UNL     1       6.043  -0.007  -3.411  1.00  0.00     0.293 HD
ENDBRANCH  23  27
ENDBRANCH   3  14
BRANCH   5  29
ATOM     29  C   UNL     1      -2.421   2.218  -1.392  1.00  0.00     0.066 C 
BRANCH  29  30
ATOM     30  C   UNL     1      -2.693   3.343  -0.430  1.00  0.00    -0.023 C 
ATOM     31  C   UNL     1      -2.047   4.520  -0.309  1.00  0.00    -0.080 C 
ATOM     32  C   UNL     1      -2.490   5.533   0.714  1.00  0.00     0.039 C 
ATOM     33  C   UNL     1      -0.860   4.948  -1.126  1.00  0.00     0.039 C 
ENDBRANCH  29  30
ENDBRANCH   5  29
TORSDOF 8
