REMARK SMILES COc1c(CC=C(C)C)cc([C@@H]2CC(=O)c3c(O)cc(O)cc3O2)cc1CC=C(C)C
REMARK SMILES IDX 3 1 4 2 10 3 11 4 25 5 26 6 2 7 1 8 5 9 6 10 7 11 8 12 9 13
REMARK SMILES IDX 27 14 28 15 29 16 30 17 31 18 12 19 13 20 24 21 14 22 23 23
REMARK SMILES IDX 15 24 16 25 22 26 17 27 20 28 19 29 18 30 21 32
REMARK H PARENT 18 31 21 33
ROOT
ATOM      1  C   UNL     1      -2.215   0.351   0.108  1.00  0.00     0.125 A 
ATOM      2  C   UNL     1      -1.278   1.005   0.928  1.00  0.00    -0.001 A 
ATOM      3  C   UNL     1       0.073   0.625   0.846  1.00  0.00     0.015 A 
ATOM      4  C   UNL     1       0.491  -0.399  -0.015  1.00  0.00    -0.006 A 
ATOM      5  C   UNL     1      -0.474  -1.071  -0.779  1.00  0.00     0.015 A 
ATOM      6  C   UNL     1      -1.837  -0.726  -0.712  1.00  0.00    -0.001 A 
ENDROOT
BRANCH   1   7
ATOM      7  O   UNL     1      -3.532   0.734   0.174  1.00  0.00    -0.496 OA
ATOM      8  C   UNL     1      -3.823   1.677  -0.862  1.00  0.00     0.278 C 
ENDBRANCH   1   7
BRANCH   2   9
ATOM      9  C   UNL     1      -1.678   2.101   1.894  1.00  0.00     0.066 C 
BRANCH   9  10
ATOM     10  C   UNL     1      -1.444   3.483   1.339  1.00  0.00    -0.023 C 
ATOM     11  C   UNL     1      -2.322   4.500   1.229  1.00  0.00    -0.080 C 
ATOM     12  C   UNL     1      -3.765   4.458   1.651  1.00  0.00     0.039 C 
ATOM     13  C   UNL     1      -1.892   5.821   0.644  1.00  0.00     0.039 C 
ENDBRANCH   9  10
ENDBRANCH   2   9
BRANCH   6  14
ATOM     14  C   UNL     1      -2.839  -1.523  -1.521  1.00  0.00     0.066 C 
BRANCH  14  15
ATOM     15  C   UNL     1      -2.844  -2.987  -1.162  1.00  0.00    -0.023 C 
ATOM     16  C   UNL     1      -2.491  -4.040  -1.927  1.00  0.00    -0.080 C 
ATOM     17  C   UNL     1      -2.588  -5.443  -1.385  1.00  0.00     0.039 C 
ATOM     18  C   UNL     1      -1.978  -3.959  -3.338  1.00  0.00     0.039 C 
ENDBRANCH  14  15
ENDBRANCH   6  14
BRANCH   4  19
ATOM     19  C   UNL     1       1.944  -0.830  -0.087  1.00  0.00     0.211 C 
ATOM     20  C   UNL     1       2.275  -1.785   1.052  1.00  0.00     0.131 C 
ATOM     21  O   UNL     1       2.779   0.340  -0.036  1.00  0.00    -0.484 OA
ATOM     22  C   UNL     1       3.716  -2.186   0.920  1.00  0.00     0.174 C 
ATOM     23  C   UNL     1       4.117   0.044  -0.056  1.00  0.00     0.138 A 
ATOM     24  O   UNL     1       4.144  -3.276   1.292  1.00  0.00    -0.294 OA
ATOM     25  C   UNL     1       4.642  -1.177   0.374  1.00  0.00     0.102 A 
ATOM     26  C   UNL     1       4.968   1.051  -0.511  1.00  0.00     0.093 A 
ATOM     27  C   UNL     1       6.021  -1.404   0.313  1.00  0.00     0.133 A 
ATOM     28  C   UNL     1       6.339   0.813  -0.564  1.00  0.00     0.123 A 
ATOM     29  C   UNL     1       6.871  -0.409  -0.161  1.00  0.00     0.093 A 
BRANCH  27  30
ATOM     30  O   UNL     1       6.601  -2.577   0.713  1.00  0.00    -0.507 OA
ATOM     31  H   UNL     1       5.893  -3.176   1.041  1.00  0.00     0.293 HD
ENDBRANCH  27  30
BRANCH  28  32
ATOM     32  O   UNL     1       7.207   1.764  -1.013  1.00  0.00    -0.508 OA
ATOM     33  H   UNL     1       6.708   2.564  -1.251  1.00  0.00     0.293 HD
ENDBRANCH  28  32
ENDBRANCH   4  19
TORSDOF 8
