REMARK SMILES COc1cc(O)c2c(c1)OC(c1ccccc1)CC2=O
REMARK SMILES IDX 3 1 9 2 8 3 10 4 11 5 18 6 19 7 20 8 7 9 5 10 4 11 2 12 1 13
REMARK SMILES IDX 6 14 12 16 13 17 17 18 14 19 16 20 15 21
REMARK H PARENT 6 15
ROOT
ATOM      1  C   UNL     1      -3.317  -0.457  -0.539  1.00  0.00     0.126 A 
ATOM      2  C   UNL     1      -1.982  -0.605  -0.932  1.00  0.00     0.093 A 
ATOM      3  C   UNL     1      -0.946  -0.204  -0.090  1.00  0.00     0.138 A 
ATOM      4  O   UNL     1       0.330  -0.379  -0.557  1.00  0.00    -0.484 OA
ATOM      5  C   UNL     1       1.283   0.500   0.065  1.00  0.00     0.211 C 
ATOM      6  C   UNL     1       1.263   0.339   1.579  1.00  0.00     0.131 C 
ATOM      7  C   UNL     1      -0.120   0.663   2.064  1.00  0.00     0.174 C 
ATOM      8  O   UNL     1      -0.347   1.141   3.173  1.00  0.00    -0.294 OA
ATOM      9  C   UNL     1      -1.239   0.319   1.168  1.00  0.00     0.102 A 
ATOM     10  C   UNL     1      -2.571   0.471   1.564  1.00  0.00     0.133 A 
ATOM     11  C   UNL     1      -3.608   0.089   0.713  1.00  0.00     0.093 A 
ENDROOT
BRANCH   1  12
ATOM     12  O   UNL     1      -4.233  -0.880  -1.463  1.00  0.00    -0.496 OA
ATOM     13  C   UNL     1      -5.606  -0.760  -1.109  1.00  0.00     0.278 C 
ENDBRANCH   1  12
BRANCH  10  14
ATOM     14  O   UNL     1      -2.932   0.981   2.783  1.00  0.00    -0.507 OA
ATOM     15  H   UNL     1      -2.110   1.188   3.284  1.00  0.00     0.293 HD
ENDBRANCH  10  14
BRANCH   5  16
ATOM     16  C   UNL     1       2.665   0.197  -0.483  1.00  0.00    -0.007 A 
ATOM     17  C   UNL     1       3.565   1.245  -0.733  1.00  0.00     0.007 A 
ATOM     18  C   UNL     1       3.088  -1.122  -0.713  1.00  0.00     0.007 A 
ATOM     19  C   UNL     1       4.850   0.980  -1.211  1.00  0.00     0.000 A 
ATOM     20  C   UNL     1       4.372  -1.384  -1.192  1.00  0.00     0.000 A 
ATOM     21  C   UNL     1       5.253  -0.334  -1.441  1.00  0.00     0.000 A 
ENDBRANCH   5  16
TORSDOF 3
