REMARK SMILES COc1ccc(-c2cc3ccc(O)cc3o2)c(O)c1
REMARK SMILES IDX 7 1 8 2 9 3 15 4 16 5 14 6 12 7 11 8 10 9 6 10 3 11 4 12
REMARK SMILES IDX 19 13 5 14 17 15 2 16 1 17 18 18 13 20
REMARK H PARENT 18 19 13 21
ROOT
ATOM      1  C   UNL     1       0.509   0.023  -0.283  1.00  0.00     0.139 A 
ATOM      2  C   UNL     1       1.229   0.148  -1.458  1.00  0.00     0.059 A 
ATOM      3  C   UNL     1       2.606   0.081  -1.117  1.00  0.00     0.021 A 
ATOM      4  C   UNL     1       2.644  -0.083   0.261  1.00  0.00     0.138 A 
ATOM      5  O   UNL     1       1.380  -0.118   0.765  1.00  0.00    -0.456 OA
ATOM      6  C   UNL     1       3.814  -0.194   1.010  1.00  0.00     0.093 A 
ATOM      7  C   UNL     1       5.003  -0.132   0.283  1.00  0.00     0.119 A 
ATOM      8  C   UNL     1       5.018   0.032  -1.101  1.00  0.00     0.047 A 
ATOM      9  C   UNL     1       3.821   0.141  -1.822  1.00  0.00     0.016 A 
ENDROOT
BRANCH   1  10
ATOM     10  C   UNL     1      -0.920   0.012   0.048  1.00  0.00     0.059 A 
ATOM     11  C   UNL     1      -3.711   0.004   0.582  1.00  0.00     0.122 A 
ATOM     12  C   UNL     1      -3.244   0.149  -0.722  1.00  0.00     0.047 A 
ATOM     13  C   UNL     1      -2.788  -0.136   1.617  1.00  0.00     0.093 A 
ATOM     14  C   UNL     1      -1.865   0.153  -0.983  1.00  0.00     0.020 A 
ATOM     15  C   UNL     1      -1.416  -0.132   1.355  1.00  0.00     0.130 A 
BRANCH  11  16
ATOM     16  O   UNL     1      -5.021  -0.016   0.971  1.00  0.00    -0.497 OA
ATOM     17  C   UNL     1      -6.000   0.124  -0.051  1.00  0.00     0.278 C 
ENDBRANCH  11  16
BRANCH  15  18
ATOM     18  O   UNL     1      -0.610  -0.278   2.454  1.00  0.00    -0.507 OA
ATOM     19  H   UNL     1       0.315  -0.259   2.142  1.00  0.00     0.293 HD
ENDBRANCH  15  18
ENDBRANCH   1  10
BRANCH   7  20
ATOM     20  O   UNL     1       6.212  -0.230   0.912  1.00  0.00    -0.508 OA
ATOM     21  H   UNL     1       6.062  -0.340   1.866  1.00  0.00     0.293 HD
ENDBRANCH   7  20
TORSDOF 4
