REMARK SMILES COc1ccc2c(=O)c3c(OC)c4c(cc3n(C)c2c1OC)OCO4
REMARK SMILES IDX 3 1 4 2 5 3 6 4 19 5 20 6 17 7 18 8 16 9 9 10 7 11 8 12
REMARK SMILES IDX 10 13 13 14 14 15 15 16 23 17 24 18 25 19 2 20 1 21 21 22
REMARK SMILES IDX 22 23 11 24 12 25
REMARK H PARENT
ROOT
ATOM      1  C   UNL     1       3.530  -0.731  -0.267  1.00  0.00     0.162 A 
ATOM      2  C   UNL     1       3.090  -2.049  -0.172  1.00  0.00     0.051 A 
ATOM      3  C   UNL     1       1.725  -2.319  -0.097  1.00  0.00     0.018 A 
ATOM      4  C   UNL     1       0.790  -1.275  -0.145  1.00  0.00     0.051 A 
ATOM      5  C   UNL     1       1.185   0.064  -0.293  1.00  0.00     0.099 A 
ATOM      6  C   UNL     1       2.578   0.314  -0.290  1.00  0.00     0.185 A 
ATOM      7  N   UNL     1       0.186   1.060  -0.394  1.00  0.00    -0.340 N 
ATOM      8  C   UNL     1       0.505   2.279  -1.149  1.00  0.00     0.150 C 
ATOM      9  C   UNL     1      -1.168   0.829  -0.058  1.00  0.00     0.060 A 
ATOM     10  C   UNL     1      -1.626  -0.500   0.156  1.00  0.00     0.092 A 
ATOM     11  C   UNL     1      -0.651  -1.603  -0.050  1.00  0.00     0.201 C 
ATOM     12  O   UNL     1      -1.000  -2.775  -0.155  1.00  0.00    -0.288 OA
ATOM     13  C   UNL     1      -2.962  -0.759   0.520  1.00  0.00     0.178 A 
ATOM     14  C   UNL     1      -3.811   0.319   0.684  1.00  0.00     0.208 A 
ATOM     15  C   UNL     1      -3.377   1.605   0.487  1.00  0.00     0.171 A 
ATOM     16  C   UNL     1      -2.076   1.890   0.125  1.00  0.00     0.078 A 
ATOM     17  O   UNL     1      -4.351   2.528   0.710  1.00  0.00    -0.453 OA
ATOM     18  C   UNL     1      -5.452   1.675   1.086  1.00  0.00     0.468 C 
ATOM     19  O   UNL     1      -5.121   0.274   1.058  1.00  0.00    -0.450 OA
ENDROOT
BRANCH   1  20
ATOM     20  O   UNL     1       4.848  -0.353  -0.323  1.00  0.00    -0.493 OA
ATOM     21  C   UNL     1       5.821  -1.383  -0.431  1.00  0.00     0.278 C 
ENDBRANCH   1  20
BRANCH   6  22
ATOM     22  O   UNL     1       3.044   1.614  -0.316  1.00  0.00    -0.491 OA
ATOM     23  C   UNL     1       3.309   2.057   1.017  1.00  0.00     0.278 C 
ENDBRANCH   6  22
BRANCH  13  24
ATOM     24  O   UNL     1      -3.408  -2.016   0.818  1.00  0.00    -0.492 OA
ATOM     25  C   UNL     1      -4.136  -2.564  -0.280  1.00  0.00     0.278 C 
ENDBRANCH  13  24
TORSDOF 3
