REMARK SMILES O=C1c2c(O)cc(OC3O[C@H](CO)[C@@H](O)[C@H](O)[C@H]3O)cc2O[C@H](c2ccc(O)cc2)[C@H]1[C@H]1C(=O)c2c(O)cc(OC3O[C@H](CO)[C@@H](O)[C@H](O)[C@H]3O)cc2O[C@@H]1c1ccc(O)cc1
REMARK SMILES IDX 7 1 6 2 4 3 3 4 21 5 20 6 22 7 23 8 31 9 2 10 1 11 8 12 9 13
REMARK SMILES IDX 11 14 10 15 14 16 16 17 18 18 12 19 13 20 15 22 17 24 19 26
REMARK SMILES IDX 5 28 24 30 25 31 30 32 26 33 29 34 27 35 28 36 32 38 55 39
REMARK SMILES IDX 33 40 54 41 35 42 34 43 53 44 36 45 52 46 38 47 39 48 56 49
REMARK SMILES IDX 57 50 62 51 58 52 61 53 59 54 60 55 37 57 40 59 41 60 42 61
REMARK SMILES IDX 50 62 43 63 48 64 46 65 51 66 44 68 45 69 49 71 47 73
REMARK H PARENT 13 21 15 23 17 25 19 27 5 29 28 37 60 56 37 58 51 67 45 70
REMARK H PARENT 49 72 47 74
ROOT
ATOM      1  C   UNL     1       4.512  -0.016  -1.759  1.00  0.00     0.130 A 
ATOM      2  C   UNL     1       4.758  -1.120  -2.581  1.00  0.00     0.093 A 
ATOM      3  C   UNL     1       4.038  -2.300  -2.413  1.00  0.00     0.133 A 
ATOM      4  C   UNL     1       3.067  -2.392  -1.414  1.00  0.00     0.102 A 
ATOM      5  C   UNL     1       2.823  -1.297  -0.591  1.00  0.00     0.138 A 
ATOM      6  C   UNL     1       3.529  -0.105  -0.771  1.00  0.00     0.094 A 
ATOM      7  O   UNL     1       1.872  -1.299   0.393  1.00  0.00    -0.484 OA
ATOM      8  C   UNL     1       1.608  -2.597   0.955  1.00  0.00     0.215 C 
ATOM      9  C   UNL     1       1.221  -3.618  -0.126  1.00  0.00     0.122 C 
ATOM     10  C   UNL     1       2.246  -3.603  -1.239  1.00  0.00     0.178 C 
ATOM     11  O   UNL     1       2.388  -4.542  -2.020  1.00  0.00    -0.293 OA
ENDROOT
BRANCH   1  12
ATOM     12  O   UNL     1       5.278   1.082  -2.033  1.00  0.00    -0.462 OA
BRANCH  12  13
ATOM     13  C   UNL     1       5.260   2.166  -1.091  1.00  0.00     0.339 C 
ATOM     14  C   UNL     1       4.006   4.009  -0.262  1.00  0.00     0.179 C 
ATOM     15  O   UNL     1       4.042   2.912  -1.182  1.00  0.00    -0.332 OA
ATOM     16  C   UNL     1       5.121   5.013  -0.594  1.00  0.00     0.177 C 
ATOM     17  C   UNL     1       6.473   4.299  -0.552  1.00  0.00     0.180 C 
ATOM     18  C   UNL     1       6.459   3.067  -1.454  1.00  0.00     0.214 C 
BRANCH  14  19
ATOM     19  C   UNL     1       2.625   4.676  -0.327  1.00  0.00     0.191 C 
BRANCH  19  20
ATOM     20  O   UNL     1       2.449   5.636   0.710  1.00  0.00    -0.394 OA
ATOM     21  H   UNL     1       3.273   6.167   0.749  1.00  0.00     0.210 HD
ENDBRANCH  19  20
ENDBRANCH  14  19
BRANCH  16  22
ATOM     22  O   UNL     1       5.128   6.108   0.328  1.00  0.00    -0.387 OA
ATOM     23  H   UNL     1       5.977   6.572   0.164  1.00  0.00     0.211 HD
ENDBRANCH  16  22
BRANCH  17  24
ATOM     24  O   UNL     1       7.496   5.216  -0.969  1.00  0.00    -0.387 OA
ATOM     25  H   UNL     1       8.300   4.668  -1.081  1.00  0.00     0.211 HD
ENDBRANCH  17  24
BRANCH  18  26
ATOM     26  O   UNL     1       7.713   2.381  -1.300  1.00  0.00    -0.384 OA
ATOM     27  H   UNL     1       7.640   1.561  -1.828  1.00  0.00     0.211 HD
ENDBRANCH  18  26
ENDBRANCH  12  13
ENDBRANCH   1  12
BRANCH   3  28
ATOM     28  O   UNL     1       4.328  -3.326  -3.270  1.00  0.00    -0.507 OA
ATOM     29  H   UNL     1       3.719  -4.074  -3.076  1.00  0.00     0.293 HD
ENDBRANCH   3  28
BRANCH   8  30
ATOM     30  C   UNL     1       2.741  -2.957   1.921  1.00  0.00    -0.007 A 
ATOM     31  C   UNL     1       3.523  -4.119   1.820  1.00  0.00     0.011 A 
ATOM     32  C   UNL     1       3.015  -2.067   2.978  1.00  0.00     0.011 A 
ATOM     33  C   UNL     1       4.547  -4.378   2.738  1.00  0.00     0.046 A 
ATOM     34  C   UNL     1       4.037  -2.324   3.894  1.00  0.00     0.046 A 
ATOM     35  C   UNL     1       4.795  -3.478   3.766  1.00  0.00     0.115 A 
BRANCH  35  36
ATOM     36  O   UNL     1       5.784  -3.694   4.679  1.00  0.00    -0.508 OA
ATOM     37  H   UNL     1       6.209  -4.544   4.481  1.00  0.00     0.293 HD
ENDBRANCH  35  36
ENDBRANCH   8  30
BRANCH   9  38
ATOM     38  C   UNL     1      -0.203  -3.499  -0.747  1.00  0.00     0.122 C 
ATOM     39  C   UNL     1      -0.624  -2.124  -1.282  1.00  0.00     0.215 C 
ATOM     40  C   UNL     1      -1.212  -4.007   0.270  1.00  0.00     0.178 C 
ATOM     41  O   UNL     1      -0.913  -1.229  -0.196  1.00  0.00    -0.484 OA
ATOM     42  C   UNL     1      -2.174  -3.030   0.841  1.00  0.00     0.102 A 
ATOM     43  O   UNL     1      -1.183  -5.182   0.626  1.00  0.00    -0.293 OA
ATOM     44  C   UNL     1      -1.947  -1.676   0.587  1.00  0.00     0.138 A 
ATOM     45  C   UNL     1      -3.271  -3.390   1.628  1.00  0.00     0.133 A 
ATOM     46  C   UNL     1      -2.780  -0.689   1.117  1.00  0.00     0.094 A 
ATOM     47  C   UNL     1      -4.125  -2.406   2.135  1.00  0.00     0.093 A 
ATOM     48  C   UNL     1      -3.897  -1.055   1.860  1.00  0.00     0.130 A 
BRANCH  39  49
ATOM     49  C   UNL     1      -1.755  -2.051  -2.315  1.00  0.00    -0.007 A 
ATOM     50  C   UNL     1      -2.512  -3.157  -2.730  1.00  0.00     0.011 A 
ATOM     51  C   UNL     1      -2.069  -0.790  -2.860  1.00  0.00     0.011 A 
ATOM     52  C   UNL     1      -3.557  -3.006  -3.649  1.00  0.00     0.046 A 
ATOM     53  C   UNL     1      -3.111  -0.639  -3.775  1.00  0.00     0.046 A 
ATOM     54  C   UNL     1      -3.849  -1.747  -4.160  1.00  0.00     0.115 A 
BRANCH  54  55
ATOM     55  O   UNL     1      -4.866  -1.557  -5.047  1.00  0.00    -0.508 OA
ATOM     56  H   UNL     1      -5.252  -2.421  -5.269  1.00  0.00     0.293 HD
ENDBRANCH  54  55
ENDBRANCH  39  49
BRANCH  45  57
ATOM     57  O   UNL     1      -3.548  -4.700   1.890  1.00  0.00    -0.507 OA
ATOM     58  H   UNL     1      -4.283  -4.769   2.521  1.00  0.00     0.293 HD
ENDBRANCH  45  57
BRANCH  48  59
ATOM     59  O   UNL     1      -4.831  -0.202   2.373  1.00  0.00    -0.462 OA
BRANCH  59  60
ATOM     60  C   UNL     1      -5.034   1.069   1.728  1.00  0.00     0.339 C 
ATOM     61  O   UNL     1      -5.891   1.840   2.576  1.00  0.00    -0.332 OA
ATOM     62  C   UNL     1      -5.696   0.882   0.331  1.00  0.00     0.214 C 
ATOM     63  C   UNL     1      -6.012   3.210   2.148  1.00  0.00     0.179 C 
ATOM     64  C   UNL     1      -6.725   1.985   0.027  1.00  0.00     0.180 C 
ATOM     65  C   UNL     1      -6.253   3.324   0.624  1.00  0.00     0.177 C 
BRANCH  62  66
ATOM     66  O   UNL     1      -4.670   0.958  -0.685  1.00  0.00    -0.384 OA
ATOM     67  H   UNL     1      -4.926   0.329  -1.388  1.00  0.00     0.211 HD
ENDBRANCH  62  66
BRANCH  63  68
ATOM     68  C   UNL     1      -7.168   3.819   2.953  1.00  0.00     0.191 C 
BRANCH  68  69
ATOM     69  O   UNL     1      -8.411   3.220   2.576  1.00  0.00    -0.394 OA
ATOM     70  H   UNL     1      -9.079   3.549   3.206  1.00  0.00     0.210 HD
ENDBRANCH  68  69
ENDBRANCH  63  68
BRANCH  64  71
ATOM     71  O   UNL     1      -8.028   1.595   0.458  1.00  0.00    -0.387 OA
ATOM     72  H   UNL     1      -8.200   1.995   1.340  1.00  0.00     0.211 HD
ENDBRANCH  64  71
BRANCH  65  73
ATOM     73  O   UNL     1      -5.021   3.746   0.007  1.00  0.00    -0.387 OA
ATOM     74  H   UNL     1      -4.651   3.003  -0.514  1.00  0.00     0.211 HD
ENDBRANCH  65  73
ENDBRANCH  59  60
ENDBRANCH  48  59
ENDBRANCH   9  38
TORSDOF 21
