REMARK SMILES COc1ccc(C2CC(=O)c3c(OC)c(OC)c(O)c(OC)c3O2)cc1
REMARK SMILES IDX 7 1 8 2 9 3 10 4 11 5 23 6 24 7 20 8 18 9 15 10 12 11 6 12
REMARK SMILES IDX 3 13 4 14 26 15 5 16 25 17 2 18 1 19 21 20 22 21 13 22 14 23
REMARK SMILES IDX 19 24 16 26 17 27
REMARK H PARENT 19 25
ROOT
ATOM      1  C   UNL     1       0.839   0.452   0.707  1.00  0.00     0.211 C 
ATOM      2  C   UNL     1       0.284  -0.215   1.948  1.00  0.00     0.131 C 
ATOM      3  C   UNL     1      -1.170   0.149   2.007  1.00  0.00     0.174 C 
ATOM      4  O   UNL     1      -1.693   0.468   3.068  1.00  0.00    -0.294 OA
ATOM      5  C   UNL     1      -1.910   0.097   0.715  1.00  0.00     0.110 A 
ATOM      6  C   UNL     1      -1.158  -0.008  -0.473  1.00  0.00     0.180 A 
ATOM      7  O   UNL     1       0.211  -0.087  -0.462  1.00  0.00    -0.480 OA
ATOM      8  C   UNL     1      -1.818  -0.090  -1.708  1.00  0.00     0.208 A 
ATOM      9  C   UNL     1      -3.225  -0.084  -1.736  1.00  0.00     0.208 A 
ATOM     10  C   UNL     1      -3.981   0.002  -0.565  1.00  0.00     0.208 A 
ATOM     11  C   UNL     1      -3.314   0.126   0.663  1.00  0.00     0.179 A 
ENDROOT
BRANCH   1  12
ATOM     12  C   UNL     1       2.335   0.231   0.592  1.00  0.00    -0.007 A 
ATOM     13  C   UNL     1       5.125  -0.160   0.431  1.00  0.00     0.118 A 
ATOM     14  C   UNL     1       4.611   1.048   0.899  1.00  0.00     0.047 A 
ATOM     15  C   UNL     1       4.243  -1.172   0.049  1.00  0.00     0.047 A 
ATOM     16  C   UNL     1       3.227   1.241   0.981  1.00  0.00     0.011 A 
ATOM     17  C   UNL     1       2.861  -0.983   0.130  1.00  0.00     0.011 A 
BRANCH  13  18
ATOM     18  O   UNL     1       6.449  -0.477   0.302  1.00  0.00    -0.497 OA
ATOM     19  C   UNL     1       7.389   0.515   0.693  1.00  0.00     0.278 C 
ENDBRANCH  13  18
ENDBRANCH   1  12
BRANCH   8  20
ATOM     20  O   UNL     1      -1.263  -0.193  -2.963  1.00  0.00    -0.490 OA
ATOM     21  C   UNL     1       0.116   0.115  -3.126  1.00  0.00     0.278 C 
ENDBRANCH   8  20
BRANCH  11  22
ATOM     22  O   UNL     1      -4.054   0.141   1.820  1.00  0.00    -0.492 OA
ATOM     23  C   UNL     1      -4.504   1.465   2.114  1.00  0.00     0.278 C 
ENDBRANCH  11  22
BRANCH   9  24
ATOM     24  O   UNL     1      -3.846  -0.142  -2.962  1.00  0.00    -0.501 OA
ATOM     25  H   UNL     1      -3.123  -0.191  -3.618  1.00  0.00     0.293 HD
ENDBRANCH   9  24
BRANCH  10  26
ATOM     26  O   UNL     1      -5.353   0.025  -0.530  1.00  0.00    -0.490 OA
ATOM     27  C   UNL     1      -5.983  -0.969  -1.333  1.00  0.00     0.278 C 
ENDBRANCH  10  26
TORSDOF 6
