REMARK SMILES COc1cc(O)cc2c1C(=O)CC(c1ccccc1)O2
REMARK SMILES IDX 3 1 4 2 5 3 7 4 8 5 9 6 10 7 11 8 12 9 13 10 20 11 2 12 1 13
REMARK SMILES IDX 6 14 14 16 15 17 19 18 16 19 18 20 17 21
REMARK H PARENT 6 15
ROOT
ATOM      1  C   UNL     1      -2.981  -0.278  -0.075  1.00  0.00     0.137 A 
ATOM      2  C   UNL     1      -3.609   0.974  -0.074  1.00  0.00     0.093 A 
ATOM      3  C   UNL     1      -2.853   2.143  -0.100  1.00  0.00     0.123 A 
ATOM      4  C   UNL     1      -1.467   2.097  -0.119  1.00  0.00     0.093 A 
ATOM      5  C   UNL     1      -0.829   0.857  -0.101  1.00  0.00     0.138 A 
ATOM      6  C   UNL     1      -1.574  -0.333  -0.096  1.00  0.00     0.102 A 
ATOM      7  C   UNL     1      -0.811  -1.614  -0.149  1.00  0.00     0.174 C 
ATOM      8  O   UNL     1      -1.334  -2.718  -0.048  1.00  0.00    -0.294 OA
ATOM      9  C   UNL     1       0.669  -1.494  -0.383  1.00  0.00     0.131 C 
ATOM     10  C   UNL     1       1.160  -0.284   0.389  1.00  0.00     0.211 C 
ATOM     11  O   UNL     1       0.542   0.911  -0.113  1.00  0.00    -0.484 OA
ENDROOT
BRANCH   1  12
ATOM     12  O   UNL     1      -3.664  -1.463  -0.072  1.00  0.00    -0.496 OA
ATOM     13  C   UNL     1      -5.084  -1.428  -0.029  1.00  0.00     0.278 C 
ENDBRANCH   1  12
BRANCH   3  14
ATOM     14  O   UNL     1      -3.524   3.330  -0.107  1.00  0.00    -0.508 OA
ATOM     15  H   UNL     1      -2.880   4.059  -0.130  1.00  0.00     0.293 HD
ENDBRANCH   3  14
BRANCH  10  16
ATOM     16  C   UNL     1       2.666  -0.142   0.266  1.00  0.00    -0.007 A 
ATOM     17  C   UNL     1       3.499  -0.604   1.296  1.00  0.00     0.007 A 
ATOM     18  C   UNL     1       3.257   0.413  -0.880  1.00  0.00     0.007 A 
ATOM     19  C   UNL     1       4.888  -0.503   1.186  1.00  0.00     0.000 A 
ATOM     20  C   UNL     1       4.645   0.513  -0.988  1.00  0.00     0.000 A 
ATOM     21  C   UNL     1       5.459   0.056   0.046  1.00  0.00     0.000 A 
ENDBRANCH  10  16
TORSDOF 3
