REMARK SMILES COc1cc(O)c2c(c1)O[C@H](c1ccc(O)cc1)[C@@H](O)C2=O
REMARK SMILES IDX 3 1 9 2 8 3 10 4 11 5 19 6 21 7 22 8 7 9 5 10 4 11 2 12 1 13
REMARK SMILES IDX 6 14 12 16 13 17 18 18 14 19 17 20 15 21 16 22 20 24
REMARK H PARENT 6 15 16 23 20 25
ROOT
ATOM      1  C   UNL     1       3.503  -0.833   0.444  1.00  0.00     0.126 A 
ATOM      2  C   UNL     1       2.148  -1.178   0.392  1.00  0.00     0.093 A 
ATOM      3  C   UNL     1       1.178  -0.214   0.114  1.00  0.00     0.138 A 
ATOM      4  O   UNL     1      -0.118  -0.648   0.083  1.00  0.00    -0.481 OA
ATOM      5  C   UNL     1      -1.092   0.387   0.315  1.00  0.00     0.240 C 
ATOM      6  C   UNL     1      -0.897   1.571  -0.640  1.00  0.00     0.231 C 
ATOM      7  C   UNL     1       0.526   2.077  -0.503  1.00  0.00     0.202 C 
ATOM      8  O   UNL     1       0.835   3.252  -0.711  1.00  0.00    -0.291 OA
ATOM      9  C   UNL     1       1.562   1.097  -0.145  1.00  0.00     0.105 A 
ATOM     10  C   UNL     1       2.915   1.447  -0.091  1.00  0.00     0.133 A 
ATOM     11  C   UNL     1       3.884   0.488   0.205  1.00  0.00     0.093 A 
ENDROOT
BRANCH   1  12
ATOM     12  O   UNL     1       4.344  -1.871   0.735  1.00  0.00    -0.496 OA
ATOM     13  C   UNL     1       5.734  -1.573   0.809  1.00  0.00     0.278 C 
ENDBRANCH   1  12
BRANCH  10  14
ATOM     14  O   UNL     1       3.366   2.719  -0.328  1.00  0.00    -0.507 OA
ATOM     15  H   UNL     1       2.592   3.294  -0.519  1.00  0.00     0.293 HD
ENDBRANCH  10  14
BRANCH   5  16
ATOM     16  C   UNL     1      -2.474  -0.233   0.149  1.00  0.00    -0.004 A 
ATOM     17  C   UNL     1      -2.722  -1.249  -0.792  1.00  0.00     0.011 A 
ATOM     18  C   UNL     1      -3.545   0.233   0.929  1.00  0.00     0.011 A 
ATOM     19  C   UNL     1      -4.000  -1.794  -0.936  1.00  0.00     0.046 A 
ATOM     20  C   UNL     1      -4.823  -0.310   0.783  1.00  0.00     0.046 A 
ATOM     21  C   UNL     1      -5.040  -1.320  -0.145  1.00  0.00     0.115 A 
BRANCH  21  22
ATOM     22  O   UNL     1      -6.303  -1.823  -0.253  1.00  0.00    -0.508 OA
ATOM     23  H   UNL     1      -6.301  -2.518  -0.932  1.00  0.00     0.293 HD
ENDBRANCH  21  22
ENDBRANCH   5  16
BRANCH   6  24
ATOM     24  O   UNL     1      -1.776   2.657  -0.329  1.00  0.00    -0.381 OA
ATOM     25  H   UNL     1      -1.421   3.441  -0.793  1.00  0.00     0.211 HD
ENDBRANCH   6  24
TORSDOF 5
