REMARK SMILES CC(C)=CCc1c([C@@H]2CC(=O)c3c(O)cc(O)cc3O2)cc(O)c(O)c1CC=C(C)C
REMARK SMILES IDX 6 1 7 2 21 3 22 4 24 5 26 6 5 7 4 8 2 9 1 10 3 11 8 12 9 13
REMARK SMILES IDX 20 14 10 15 19 16 11 17 12 18 18 19 13 20 16 21 15 22 14 23
REMARK SMILES IDX 17 25 27 27 28 28 29 29 30 30 31 31 25 32 23 34
REMARK H PARENT 14 24 17 26 25 33 23 35
ROOT
ATOM      1  C   UNL     1      -0.810  -0.573   0.502  1.00  0.00    -0.030 A 
ATOM      2  C   UNL     1       0.385  -1.157   1.032  1.00  0.00     0.001 A 
ATOM      3  C   UNL     1       0.283  -2.265   1.907  1.00  0.00     0.058 A 
ATOM      4  C   UNL     1      -0.953  -2.782   2.254  1.00  0.00     0.158 A 
ATOM      5  C   UNL     1      -2.116  -2.210   1.759  1.00  0.00     0.161 A 
ATOM      6  C   UNL     1      -2.081  -1.109   0.892  1.00  0.00     0.005 A 
ENDROOT
BRANCH   1   7
ATOM      7  C   UNL     1      -0.768   0.625  -0.445  1.00  0.00     0.063 C 
BRANCH   7   8
ATOM      8  C   UNL     1      -0.698   1.944   0.278  1.00  0.00    -0.024 C 
ATOM      9  C   UNL     1       0.030   3.029  -0.054  1.00  0.00    -0.080 C 
ATOM     10  C   UNL     1      -0.004   4.266   0.806  1.00  0.00     0.039 C 
ATOM     11  C   UNL     1       0.915   3.146  -1.264  1.00  0.00     0.039 C 
ENDBRANCH   7   8
ENDBRANCH   1   7
BRANCH   2  12
ATOM     12  C   UNL     1       1.815  -0.658   0.788  1.00  0.00     0.211 C 
ATOM     13  C   UNL     1       2.183   0.448   1.769  1.00  0.00     0.131 C 
ATOM     14  O   UNL     1       2.022  -0.281  -0.575  1.00  0.00    -0.484 OA
ATOM     15  C   UNL     1       3.609   0.845   1.529  1.00  0.00     0.174 C 
ATOM     16  C   UNL     1       3.270   0.219  -0.832  1.00  0.00     0.138 A 
ATOM     17  O   UNL     1       4.342   1.276   2.417  1.00  0.00    -0.294 OA
ATOM     18  C   UNL     1       4.105   0.762   0.145  1.00  0.00     0.102 A 
ATOM     19  C   UNL     1       3.685   0.193  -2.163  1.00  0.00     0.093 A 
ATOM     20  C   UNL     1       5.370   1.248  -0.209  1.00  0.00     0.133 A 
ATOM     21  C   UNL     1       4.943   0.682  -2.502  1.00  0.00     0.123 A 
ATOM     22  C   UNL     1       5.795   1.206  -1.534  1.00  0.00     0.093 A 
BRANCH  20  23
ATOM     23  O   UNL     1       6.242   1.789   0.698  1.00  0.00    -0.507 OA
ATOM     24  H   UNL     1       5.815   1.766   1.585  1.00  0.00     0.293 HD
ENDBRANCH  20  23
BRANCH  21  25
ATOM     25  O   UNL     1       5.310   0.629  -3.815  1.00  0.00    -0.508 OA
ATOM     26  H   UNL     1       6.202   1.004  -3.908  1.00  0.00     0.293 HD
ENDBRANCH  21  25
ENDBRANCH   2  12
BRANCH   6  27
ATOM     27  C   UNL     1      -3.408  -0.557   0.391  1.00  0.00     0.067 C 
BRANCH  27  28
ATOM     28  C   UNL     1      -3.852  -1.202  -0.899  1.00  0.00    -0.023 C 
ATOM     29  C   UNL     1      -4.955  -1.943  -1.128  1.00  0.00    -0.080 C 
ATOM     30  C   UNL     1      -5.994  -2.301  -0.101  1.00  0.00     0.039 C 
ATOM     31  C   UNL     1      -5.226  -2.507  -2.499  1.00  0.00     0.039 C 
ENDBRANCH  27  28
ENDBRANCH   6  27
BRANCH   5  32
ATOM     32  O   UNL     1      -3.313  -2.751   2.153  1.00  0.00    -0.504 OA
ATOM     33  H   UNL     1      -3.067  -3.506   2.724  1.00  0.00     0.293 HD
ENDBRANCH   5  32
BRANCH   4  34
ATOM     34  O   UNL     1      -1.079  -3.853   3.096  1.00  0.00    -0.504 OA
ATOM     35  H   UNL     1      -0.189  -4.161   3.338  1.00  0.00     0.293 HD
ENDBRANCH   4  34
TORSDOF 9
