REMARK SMILES CC1(C)C=Cc2cc([C@@H]3CC(=O)c4ccc(O)cc4O3)ccc2O1
REMARK SMILES IDX 16 1 15 2 14 3 13 4 19 5 18 6 20 7 9 8 10 9 11 10 12 11
REMARK SMILES IDX 17 12 8 14 21 15 7 16 22 17 6 18 23 19 5 20 24 21 4 22 2 23
REMARK SMILES IDX 1 24 3 25
REMARK H PARENT 17 13
ROOT
ATOM      1  C   UNL     1       5.801   1.361  -1.260  1.00  0.00     0.119 A 
ATOM      2  C   UNL     1       6.482   0.481  -0.421  1.00  0.00     0.047 A 
ATOM      3  C   UNL     1       5.761  -0.295   0.489  1.00  0.00     0.019 A 
ATOM      4  C   UNL     1       4.367  -0.183   0.541  1.00  0.00     0.060 A 
ATOM      5  C   UNL     1       3.692   0.685  -0.318  1.00  0.00     0.134 A 
ATOM      6  C   UNL     1       4.414   1.473  -1.212  1.00  0.00     0.093 A 
ATOM      7  O   UNL     1       2.331   0.837  -0.322  1.00  0.00    -0.484 OA
ATOM      8  C   UNL     1       1.638  -0.312   0.196  1.00  0.00     0.211 C 
ATOM      9  C   UNL     1       2.118  -0.652   1.601  1.00  0.00     0.131 C 
ATOM     10  C   UNL     1       3.588  -0.951   1.532  1.00  0.00     0.170 C 
ATOM     11  O   UNL     1       4.137  -1.748   2.286  1.00  0.00    -0.294 OA
ENDROOT
BRANCH   1  12
ATOM     12  O   UNL     1       6.468   2.142  -2.156  1.00  0.00    -0.508 OA
ATOM     13  H   UNL     1       7.422   1.971  -2.078  1.00  0.00     0.293 HD
ENDBRANCH   1  12
BRANCH   8  14
ATOM     14  C   UNL     1       0.147  -0.026   0.199  1.00  0.00    -0.006 A 
ATOM     15  C   UNL     1      -0.355   1.230   0.573  1.00  0.00     0.011 A 
ATOM     16  C   UNL     1      -0.763  -1.041  -0.142  1.00  0.00     0.019 A 
ATOM     17  C   UNL     1      -1.731   1.465   0.594  1.00  0.00     0.047 A 
ATOM     18  C   UNL     1      -2.145  -0.806  -0.121  1.00  0.00     0.017 A 
ATOM     19  C   UNL     1      -2.623   0.451   0.247  1.00  0.00     0.127 A 
ATOM     20  C   UNL     1      -3.080  -1.860  -0.476  1.00  0.00     0.012 C 
ATOM     21  O   UNL     1      -3.948   0.778   0.302  1.00  0.00    -0.483 OA
ATOM     22  C   UNL     1      -4.384  -1.572  -0.449  1.00  0.00     0.021 C 
ATOM     23  C   UNL     1      -4.929  -0.212  -0.070  1.00  0.00     0.122 C 
ATOM     24  C   UNL     1      -5.705   0.371  -1.256  1.00  0.00     0.061 C 
ATOM     25  C   UNL     1      -5.865  -0.363   1.136  1.00  0.00     0.061 C 
ENDBRANCH   8  14
TORSDOF 2
