REMARK SMILES CC(=O)O[C@H]1CC[C@]2(C)[C@H]3CC[C@]4(C)C(=CC[C@@]5(C(=O)O)CCC(C)(C)C[C@H]54)[C@]3(C)CC[C@H]2C1(C)C
REMARK SMILES IDX 5 1 6 2 7 3 8 4 33 5 34 6 35 7 36 8 32 9 31 10 29 11 10 12
REMARK SMILES IDX 11 13 12 14 13 15 15 16 16 17 17 18 18 19 28 20 27 21 24 22
REMARK SMILES IDX 25 23 26 24 23 25 22 26 14 27 30 28 9 29 4 30 2 31 3 32 1 33
REMARK SMILES IDX 19 34 20 35 21 36
REMARK H PARENT 21 37
ROOT
ATOM      1  C   UNL     1       5.382   0.534   0.816  1.00  0.00     0.182 C 
ATOM      2  C   UNL     1       4.400   1.659   1.136  1.00  0.00     0.046 C 
ATOM      3  C   UNL     1       3.160   1.655   0.236  1.00  0.00     0.011 C 
ATOM      4  C   UNL     1       2.561   0.242  -0.084  1.00  0.00    -0.025 C 
ATOM      5  C   UNL     1       3.143  -0.797   0.934  1.00  0.00     0.005 C 
ATOM      6  C   UNL     1       4.722  -0.873   1.020  1.00  0.00     0.005 C 
ATOM      7  C   UNL     1       5.087  -1.338   2.460  1.00  0.00     0.015 C 
ATOM      8  C   UNL     1       5.339  -1.916   0.063  1.00  0.00     0.015 C 
ATOM      9  C   UNL     1       2.462  -2.170   0.792  1.00  0.00     0.006 C 
ATOM     10  C   UNL     1       0.948  -2.080   0.985  1.00  0.00     0.012 C 
ATOM     11  C   UNL     1       0.215  -1.069   0.054  1.00  0.00    -0.008 C 
ATOM     12  C   UNL     1       0.982   0.296   0.118  1.00  0.00     0.005 C 
ATOM     13  C   UNL     1       0.288   1.421  -0.688  1.00  0.00     0.006 C 
ATOM     14  C   UNL     1      -1.207   1.220  -0.931  1.00  0.00     0.012 C 
ATOM     15  C   UNL     1      -1.963   0.485   0.203  1.00  0.00    -0.007 C 
ATOM     16  C   UNL     1      -1.258  -0.847   0.525  1.00  0.00    -0.062 C 
ATOM     17  C   UNL     1      -1.952  -1.775   1.213  1.00  0.00    -0.025 C 
ATOM     18  C   UNL     1      -3.383  -1.580   1.598  1.00  0.00     0.046 C 
ATOM     19  C   UNL     1      -4.211  -0.946   0.460  1.00  0.00     0.075 C 
ATOM     20  C   UNL     1      -3.454   0.221  -0.286  1.00  0.00     0.017 C 
ATOM     21  C   UNL     1      -4.307   1.518  -0.355  1.00  0.00     0.012 C 
ATOM     22  C   UNL     1      -5.764   1.299  -0.825  1.00  0.00    -0.035 C 
ATOM     23  C   UNL     1      -6.529   2.630  -0.664  1.00  0.00     0.011 C 
ATOM     24  C   UNL     1      -5.800   0.925  -2.320  1.00  0.00     0.011 C 
ATOM     25  C   UNL     1      -6.464   0.202   0.010  1.00  0.00     0.007 C 
ATOM     26  C   UNL     1      -5.552  -0.447   1.052  1.00  0.00     0.020 C 
ATOM     27  C   UNL     1      -1.942   1.387   1.466  1.00  0.00     0.016 C 
ATOM     28  C   UNL     1       0.140  -1.684  -1.366  1.00  0.00     0.016 C 
ATOM     29  C   UNL     1       2.925  -0.113  -1.547  1.00  0.00     0.012 C 
ENDROOT
BRANCH   1  30
ATOM     30  O   UNL     1       5.854   0.688  -0.538  1.00  0.00    -0.462 OA
BRANCH  30  31
ATOM     31  C   UNL     1       6.878   1.561  -0.738  1.00  0.00     0.302 C 
ATOM     32  O   UNL     1       7.434   2.223   0.126  1.00  0.00    -0.253 OA
ATOM     33  C   UNL     1       7.232   1.600  -2.193  1.00  0.00     0.139 C 
ENDBRANCH  30  31
ENDBRANCH   1  30
BRANCH  19  34
ATOM     34  C   UNL     1      -4.489  -2.097  -0.529  1.00  0.00     0.310 C 
ATOM     35  O   UNL     1      -3.950  -2.304  -1.604  1.00  0.00    -0.252 OA
BRANCH  34  36
ATOM     36  O   UNL     1      -5.418  -2.975  -0.093  1.00  0.00    -0.481 OA
ATOM     37  H   UNL     1      -5.455  -3.641  -0.812  1.00  0.00     0.296 HD
ENDBRANCH  34  36
ENDBRANCH  19  34
TORSDOF 4
