REMARK SMILES O=c1cc(-c2ccc(O)c(-c3c(O)cc(O)c4c(=O)cc(-c5ccc(O)cc5)oc34)c2)oc2cc(O)cc(O)c12
REMARK SMILES IDX 21 1 20 2 18 3 19 4 17 5 30 6 29 7 11 8 12 9 14 10 15 11
REMARK SMILES IDX 22 12 25 13 24 14 27 15 23 16 28 17 26 18 10 20 31 21 8 22
REMARK SMILES IDX 5 23 7 24 6 25 9 26 4 28 3 29 32 30 2 31 33 32 1 33 40 34
REMARK SMILES IDX 34 35 38 36 35 37 37 38 39 39 36 41 16 43 13 45
REMARK H PARENT 26 19 9 27 39 40 36 42 16 44 13 46
ROOT
ATOM      1  C   UNL     1      -2.785  -0.755   0.871  1.00  0.00     0.138 C 
ATOM      2  C   UNL     1      -3.539  -1.705   1.442  1.00  0.00     0.100 C 
ATOM      3  C   UNL     1      -3.599  -3.031   0.817  1.00  0.00     0.197 C 
ATOM      4  O   UNL     1      -4.282  -3.932   1.293  1.00  0.00    -0.289 OA
ATOM      5  C   UNL     1      -2.812  -3.240  -0.404  1.00  0.00     0.107 A 
ATOM      6  C   UNL     1      -2.039  -2.183  -0.893  1.00  0.00     0.154 A 
ATOM      7  O   UNL     1      -2.026  -0.953  -0.270  1.00  0.00    -0.455 OA
ATOM      8  C   UNL     1      -1.253  -2.336  -2.059  1.00  0.00     0.071 A 
ATOM      9  C   UNL     1      -1.315  -3.581  -2.718  1.00  0.00     0.131 A 
ATOM     10  C   UNL     1      -2.086  -4.639  -2.233  1.00  0.00     0.094 A 
ATOM     11  C   UNL     1      -2.828  -4.466  -1.071  1.00  0.00     0.134 A 
ENDROOT
BRANCH   1  12
ATOM     12  C   UNL     1      -2.675   0.607   1.438  1.00  0.00     0.018 A 
ATOM     13  C   UNL     1      -2.426   3.205   2.471  1.00  0.00     0.115 A 
ATOM     14  C   UNL     1      -3.650   2.551   2.545  1.00  0.00     0.047 A 
ATOM     15  C   UNL     1      -1.329   2.590   1.884  1.00  0.00     0.047 A 
ATOM     16  C   UNL     1      -3.773   1.257   2.026  1.00  0.00     0.016 A 
ATOM     17  C   UNL     1      -1.456   1.299   1.366  1.00  0.00     0.016 A 
BRANCH  13  18
ATOM     18  O   UNL     1      -2.261   4.465   2.962  1.00  0.00    -0.508 OA
ATOM     19  H   UNL     1      -3.105   4.769   3.334  1.00  0.00     0.293 HD
ENDBRANCH  13  18
ENDBRANCH   1  12
BRANCH   8  20
ATOM     20  C   UNL     1      -0.389  -1.232  -2.547  1.00  0.00     0.032 A 
ATOM     21  C   UNL     1       0.625  -0.719  -1.709  1.00  0.00     0.024 A 
ATOM     22  C   UNL     1      -0.542  -0.629  -3.805  1.00  0.00     0.123 A 
ATOM     23  C   UNL     1       1.431   0.371  -2.083  1.00  0.00     0.018 A 
ATOM     24  C   UNL     1       0.225   0.470  -4.187  1.00  0.00     0.047 A 
ATOM     25  C   UNL     1       1.203   0.971  -3.328  1.00  0.00     0.016 A 
BRANCH  22  26
ATOM     26  O   UNL     1      -1.442  -1.081  -4.732  1.00  0.00    -0.507 OA
ATOM     27  H   UNL     1      -1.488  -2.049  -4.614  1.00  0.00     0.293 HD
ENDBRANCH  22  26
BRANCH  23  28
ATOM     28  C   UNL     1       2.465   0.877  -1.156  1.00  0.00     0.138 C 
ATOM     29  C   UNL     1       3.664   1.292  -1.591  1.00  0.00     0.100 C 
ATOM     30  O   UNL     1       2.090   0.854   0.180  1.00  0.00    -0.456 OA
ATOM     31  C   UNL     1       4.650   1.777  -0.616  1.00  0.00     0.197 C 
ATOM     32  C   UNL     1       2.984   1.298   1.122  1.00  0.00     0.146 A 
ATOM     33  O   UNL     1       5.757   2.174  -0.962  1.00  0.00    -0.289 OA
ATOM     34  C   UNL     1       4.255   1.765   0.797  1.00  0.00     0.107 A 
ATOM     35  C   UNL     1       2.574   1.265   2.454  1.00  0.00     0.094 A 
ATOM     36  C   UNL     1       5.120   2.204   1.806  1.00  0.00     0.134 A 
ATOM     37  C   UNL     1       3.442   1.705   3.450  1.00  0.00     0.123 A 
ATOM     38  C   UNL     1       4.715   2.176   3.138  1.00  0.00     0.093 A 
BRANCH  36  39
ATOM     39  O   UNL     1       6.381   2.674   1.554  1.00  0.00    -0.507 OA
ATOM     40  H   UNL     1       6.534   2.638   0.582  1.00  0.00     0.293 HD
ENDBRANCH  36  39
BRANCH  37  41
ATOM     41  O   UNL     1       3.002   1.655   4.739  1.00  0.00    -0.508 OA
ATOM     42  H   UNL     1       3.694   2.012   5.322  1.00  0.00     0.293 HD
ENDBRANCH  37  41
ENDBRANCH  23  28
ENDBRANCH   8  20
BRANCH  11  43
ATOM     43  O   UNL     1      -3.560  -5.541  -0.647  1.00  0.00    -0.507 OA
ATOM     44  H   UNL     1      -4.037  -5.286   0.176  1.00  0.00     0.293 HD
ENDBRANCH  11  43
BRANCH   9  45
ATOM     45  O   UNL     1      -0.625  -3.748  -3.891  1.00  0.00    -0.507 OA
ATOM     46  H   UNL     1      -0.592  -4.697  -4.107  1.00  0.00     0.293 HD
ENDBRANCH   9  45
TORSDOF 9
