REMARK SMILES CC(C)(C#N)n1cnc(-c2ccc(C#N)cc2)n1
REMARK SMILES IDX 6 1 7 2 8 3 9 4 18 5 2 6 5 7 4 8 1 9 3 10 10 11 11 12 17 13
REMARK SMILES IDX 12 14 16 15 13 16 14 17 15 18
REMARK H PARENT
ROOT
ATOM      1  N   UNL     1      -1.759  -0.509  -0.127  1.00  0.00    -0.233 N 
ATOM      2  C   UNL     1      -1.472  -1.820   0.101  1.00  0.00     0.222 A 
ATOM      3  N   UNL     1      -0.186  -1.958   0.319  1.00  0.00    -0.215 NA
ATOM      4  C   UNL     1       0.308  -0.678   0.216  1.00  0.00     0.181 A 
ATOM      5  N   UNL     1      -0.634   0.239  -0.058  1.00  0.00    -0.149 NA
ENDROOT
BRANCH   1   6
ATOM      6  C   UNL     1      -3.051   0.131  -0.417  1.00  0.00     0.145 C 
ATOM      7  N   UNL     1      -5.010  -1.640  -0.471  1.00  0.00    -0.196 NA
ATOM      8  C   UNL     1      -4.152  -0.858  -0.448  1.00  0.00     0.092 C 
ATOM      9  C   UNL     1      -3.371   1.171   0.674  1.00  0.00     0.053 C 
ATOM     10  C   UNL     1      -2.990   0.825  -1.790  1.00  0.00     0.053 C 
ENDBRANCH   1   6
BRANCH   4  11
ATOM     11  C   UNL     1       1.724  -0.372   0.392  1.00  0.00     0.021 A 
ATOM     12  C   UNL     1       2.199   0.944   0.281  1.00  0.00     0.013 A 
ATOM     13  C   UNL     1       2.640  -1.396   0.677  1.00  0.00     0.013 A 
ATOM     14  C   UNL     1       3.558   1.230   0.451  1.00  0.00     0.020 A 
ATOM     15  C   UNL     1       3.999  -1.113   0.848  1.00  0.00     0.020 A 
ATOM     16  C   UNL     1       4.461   0.202   0.735  1.00  0.00     0.052 A 
ATOM     17  C   UNL     1       5.854   0.494   0.909  1.00  0.00     0.099 C 
ATOM     18  N   UNL     1       6.981   0.733   1.050  1.00  0.00    -0.192 NA
ENDBRANCH   4  11
TORSDOF 2
