REMARK SMILES CC1(C)CC[C@]2(C(=O)O)CC[C@]3(C)C(=CC[C@@H]4[C@@]5(C)C[C@@H](O)[C@H](O)C(C)(C)[C@@H]5CC[C@]43C)[C@@H]2[C@@H]1O
REMARK SMILES IDX 21 1 20 2 18 3 19 4 28 5 25 6 23 7 26 8 27 9 29 10 30 11
REMARK SMILES IDX 31 12 17 13 16 14 15 15 14 16 12 17 13 18 11 19 10 20 6 21
REMARK SMILES IDX 33 22 34 23 2 24 1 25 3 26 4 27 5 28 32 29 22 30 24 32 7 34
REMARK SMILES IDX 8 35 9 36 35 38
REMARK H PARENT 22 31 24 33 9 37 35 39
ROOT
ATOM      1  C   UNL     1       5.240   0.649  -1.017  1.00  0.00     0.144 C 
ATOM      2  C   UNL     1       3.743   0.466  -1.258  1.00  0.00     0.042 C 
ATOM      3  C   UNL     1       2.965  -0.100  -0.033  1.00  0.00    -0.023 C 
ATOM      4  C   UNL     1       3.372  -1.586   0.138  1.00  0.00     0.012 C 
ATOM      5  C   UNL     1       3.311   0.784   1.224  1.00  0.00     0.004 C 
ATOM      6  C   UNL     1       4.843   1.004   1.514  1.00  0.00    -0.003 C 
ATOM      7  C   UNL     1       5.517   1.522   0.213  1.00  0.00     0.149 C 
ATOM      8  C   UNL     1       5.563  -0.244   2.062  1.00  0.00     0.014 C 
ATOM      9  C   UNL     1       5.022   2.109   2.592  1.00  0.00     0.014 C 
ATOM     10  C   UNL     1       2.474   0.355   2.447  1.00  0.00     0.005 C 
ATOM     11  C   UNL     1       0.974   0.522   2.184  1.00  0.00     0.008 C 
ATOM     12  C   UNL     1       0.441  -0.194   0.910  1.00  0.00    -0.020 C 
ATOM     13  C   UNL     1       1.407   0.073  -0.305  1.00  0.00     0.006 C 
ATOM     14  C   UNL     1       0.899  -0.608  -1.600  1.00  0.00     0.032 C 
ATOM     15  C   UNL     1      -0.591  -0.775  -1.704  1.00  0.00    -0.026 C 
ATOM     16  C   UNL     1      -1.499  -0.387  -0.783  1.00  0.00    -0.061 C 
ATOM     17  C   UNL     1      -1.042   0.350   0.494  1.00  0.00    -0.006 C 
ATOM     18  C   UNL     1      -1.015   1.872   0.140  1.00  0.00     0.017 C 
ATOM     19  C   UNL     1      -2.035   0.214   1.685  1.00  0.00     0.013 C 
ATOM     20  C   UNL     1      -3.512   0.161   1.287  1.00  0.00     0.020 C 
ATOM     21  C   UNL     1      -3.791  -0.976   0.286  1.00  0.00     0.077 C 
ATOM     22  C   UNL     1      -2.981  -0.741  -1.024  1.00  0.00     0.062 C 
ATOM     23  C   UNL     1      -3.658   0.219  -2.050  1.00  0.00     0.128 C 
ATOM     24  C   UNL     1      -5.154  -0.098  -2.307  1.00  0.00    -0.009 C 
ATOM     25  C   UNL     1      -5.309  -1.445  -3.045  1.00  0.00     0.014 C 
ATOM     26  C   UNL     1      -5.791   0.989  -3.202  1.00  0.00     0.014 C 
ATOM     27  C   UNL     1      -5.899  -0.114  -0.960  1.00  0.00     0.010 C 
ATOM     28  C   UNL     1      -5.314  -1.116   0.027  1.00  0.00     0.020 C 
ATOM     29  C   UNL     1       0.377  -1.719   1.244  1.00  0.00     0.012 C 
ENDROOT
BRANCH   1  30
ATOM     30  O   UNL     1       5.827   1.299  -2.156  1.00  0.00    -0.390 OA
ATOM     31  H   UNL     1       5.674   0.723  -2.926  1.00  0.00     0.211 HD
ENDBRANCH   1  30
BRANCH   7  32
ATOM     32  O   UNL     1       6.936   1.632   0.375  1.00  0.00    -0.390 OA
ATOM     33  H   UNL     1       7.271   1.857  -0.516  1.00  0.00     0.211 HD
ENDBRANCH   7  32
BRANCH  21  34
ATOM     34  C   UNL     1      -3.387  -2.331   0.889  1.00  0.00     0.310 C 
ATOM     35  O   UNL     1      -2.811  -3.249   0.328  1.00  0.00    -0.252 OA
BRANCH  34  36
ATOM     36  O   UNL     1      -3.802  -2.499   2.163  1.00  0.00    -0.481 OA
ATOM     37  H   UNL     1      -3.502  -3.404   2.389  1.00  0.00     0.296 HD
ENDBRANCH  34  36
ENDBRANCH  21  34
BRANCH  23  38
ATOM     38  O   UNL     1      -3.561   1.577  -1.622  1.00  0.00    -0.392 OA
ATOM     39  H   UNL     1      -2.672   1.879  -1.876  1.00  0.00     0.211 HD
ENDBRANCH  23  38
TORSDOF 5
