REMARK SMILES COc1c(/C=C/C(C)(C)O)cc([C@@H]2CC(=O)c3c(O)cc(O)cc3O2)cc1CC=C(C)C
REMARK SMILES IDX 3 1 27 2 26 3 12 4 11 5 4 6 2 7 1 8 28 9 29 10 30 11 31 12
REMARK SMILES IDX 32 13 5 14 6 15 7 16 8 17 9 18 10 19 13 21 14 22 25 23 15 24
REMARK SMILES IDX 24 25 16 26 17 27 23 28 18 29 21 30 20 31 19 32 22 34
REMARK H PARENT 10 20 19 33 22 35
ROOT
ATOM      1  C   UNL     1      -2.046   0.255   0.400  1.00  0.00     0.129 A 
ATOM      2  C   UNL     1      -1.234   1.289   0.898  1.00  0.00    -0.001 A 
ATOM      3  C   UNL     1       0.162   1.106   0.923  1.00  0.00     0.015 A 
ATOM      4  C   UNL     1       0.755  -0.084   0.482  1.00  0.00    -0.006 A 
ATOM      5  C   UNL     1      -0.088  -1.111   0.019  1.00  0.00     0.019 A 
ATOM      6  C   UNL     1      -1.484  -0.970  -0.006  1.00  0.00     0.017 A 
ENDROOT
BRANCH   1   7
ATOM      7  O   UNL     1      -3.406   0.454   0.372  1.00  0.00    -0.496 OA
ATOM      8  C   UNL     1      -3.834   0.785  -0.951  1.00  0.00     0.278 C 
ENDBRANCH   1   7
BRANCH   2   9
ATOM      9  C   UNL     1      -1.810   2.594   1.405  1.00  0.00     0.066 C 
BRANCH   9  10
ATOM     10  C   UNL     1      -1.531   3.745   0.473  1.00  0.00    -0.023 C 
ATOM     11  C   UNL     1      -0.745   4.821   0.680  1.00  0.00    -0.080 C 
ATOM     12  C   UNL     1       0.061   5.085   1.921  1.00  0.00     0.039 C 
ATOM     13  C   UNL     1      -0.610   5.884  -0.379  1.00  0.00     0.039 C 
ENDBRANCH   9  10
ENDBRANCH   2   9
BRANCH   6  14
ATOM     14  C   UNL     1      -2.263  -2.124  -0.479  1.00  0.00     0.010 C 
ATOM     15  C   UNL     1      -3.304  -2.639   0.197  1.00  0.00     0.008 C 
BRANCH  15  16
ATOM     16  C   UNL     1      -4.144  -3.820  -0.225  1.00  0.00     0.077 C 
ATOM     17  C   UNL     1      -4.051  -4.930   0.823  1.00  0.00     0.046 C 
ATOM     18  C   UNL     1      -5.596  -3.381  -0.424  1.00  0.00     0.046 C 
BRANCH  16  19
ATOM     19  O   UNL     1      -3.662  -4.337  -1.465  1.00  0.00    -0.386 OA
ATOM     20  H   UNL     1      -4.221  -5.094  -1.705  1.00  0.00     0.211 HD
ENDBRANCH  16  19
ENDBRANCH  15  16
ENDBRANCH   6  14
BRANCH   4  21
ATOM     21  C   UNL     1       2.256  -0.327   0.478  1.00  0.00     0.211 C 
ATOM     22  C   UNL     1       3.097   0.719   1.202  1.00  0.00     0.131 C 
ATOM     23  O   UNL     1       2.661  -0.413  -0.901  1.00  0.00    -0.484 OA
ATOM     24  C   UNL     1       4.535   0.292   1.129  1.00  0.00     0.174 C 
ATOM     25  C   UNL     1       3.989  -0.717  -1.051  1.00  0.00     0.138 A 
ATOM     26  O   UNL     1       5.359   0.561   2.000  1.00  0.00    -0.294 OA
ATOM     27  C   UNL     1       4.957  -0.422  -0.089  1.00  0.00     0.102 A 
ATOM     28  C   UNL     1       4.362  -1.325  -2.248  1.00  0.00     0.093 A 
ATOM     29  C   UNL     1       6.294  -0.769  -0.312  1.00  0.00     0.133 A 
ATOM     30  C   UNL     1       5.696  -1.665  -2.459  1.00  0.00     0.123 A 
ATOM     31  C   UNL     1       6.667  -1.397  -1.498  1.00  0.00     0.093 A 
BRANCH  29  32
ATOM     32  O   UNL     1       7.291  -0.512   0.589  1.00  0.00    -0.507 OA
ATOM     33  H   UNL     1       6.893  -0.051   1.363  1.00  0.00     0.293 HD
ENDBRANCH  29  32
BRANCH  30  34
ATOM     34  O   UNL     1       6.016  -2.269  -3.639  1.00  0.00    -0.508 OA
ATOM     35  H   UNL     1       6.972  -2.441  -3.655  1.00  0.00     0.293 HD
ENDBRANCH  30  34
ENDBRANCH   4  21
TORSDOF 9
