REMARK SMILES O=C1C[C@@H](c2ccccc2)Oc2c(Cc3ccccc3O)c(O)cc(O)c21
REMARK SMILES IDX 14 1 13 2 22 3 24 4 25 5 12 6 27 7 11 8 2 9 4 10 3 11 1 12
REMARK SMILES IDX 23 13 26 15 5 17 6 18 10 19 7 20 9 21 8 22 15 23 16 24 20 25
REMARK SMILES IDX 17 26 19 27 18 28 21 29
REMARK H PARENT 23 14 26 16 21 30
ROOT
ATOM      1  C   UNL     1       1.713   0.164  -1.384  1.00  0.00     0.082 C 
ENDROOT
BRANCH   1   2
ATOM      2  C   UNL     1       1.265   1.340  -0.534  1.00  0.00     0.041 A 
ATOM      3  C   UNL     1       2.146   2.364  -0.149  1.00  0.00     0.126 A 
ATOM      4  C   UNL     1       1.711   3.472   0.581  1.00  0.00     0.093 A 
ATOM      5  C   UNL     1       0.379   3.571   0.958  1.00  0.00     0.133 A 
ATOM      6  C   UNL     1      -0.083   1.457  -0.138  1.00  0.00     0.142 A 
ATOM      7  C   UNL     1      -0.522   2.567   0.599  1.00  0.00     0.102 A 
ATOM      8  O   UNL     1      -0.953   0.470  -0.536  1.00  0.00    -0.484 OA
ATOM      9  C   UNL     1      -1.953   2.665   0.953  1.00  0.00     0.174 C 
ATOM     10  C   UNL     1      -2.051   0.293   0.372  1.00  0.00     0.211 C 
ATOM     11  C   UNL     1      -2.861   1.577   0.460  1.00  0.00     0.131 C 
ATOM     12  O   UNL     1      -2.365   3.634   1.588  1.00  0.00    -0.294 OA
BRANCH   3  13
ATOM     13  O   UNL     1       3.474   2.355  -0.469  1.00  0.00    -0.507 OA
ATOM     14  H   UNL     1       3.785   1.435  -0.433  1.00  0.00     0.293 HD
ENDBRANCH   3  13
BRANCH   5  15
ATOM     15  O   UNL     1       0.019   4.682   1.671  1.00  0.00    -0.507 OA
ATOM     16  H   UNL     1      -0.948   4.635   1.844  1.00  0.00     0.293 HD
ENDBRANCH   5  15
BRANCH  10  17
ATOM     17  C   UNL     1      -2.921  -0.853  -0.109  1.00  0.00    -0.007 A 
ATOM     18  C   UNL     1      -3.144  -1.083  -1.475  1.00  0.00     0.007 A 
ATOM     19  C   UNL     1      -3.556  -1.688   0.826  1.00  0.00     0.007 A 
ATOM     20  C   UNL     1      -3.969  -2.127  -1.896  1.00  0.00     0.000 A 
ATOM     21  C   UNL     1      -4.381  -2.731   0.402  1.00  0.00     0.000 A 
ATOM     22  C   UNL     1      -4.587  -2.951  -0.958  1.00  0.00     0.000 A 
ENDBRANCH  10  17
ENDBRANCH   1   2
BRANCH   1  23
ATOM     23  C   UNL     1       2.726  -0.768  -0.749  1.00  0.00    -0.001 A 
ATOM     24  C   UNL     1       3.963  -0.974  -1.386  1.00  0.00     0.008 A 
ATOM     25  C   UNL     1       2.466  -1.469   0.434  1.00  0.00     0.119 A 
ATOM     26  C   UNL     1       4.919  -1.828  -0.834  1.00  0.00     0.001 A 
ATOM     27  C   UNL     1       3.420  -2.324   0.990  1.00  0.00     0.046 A 
ATOM     28  C   UNL     1       4.649  -2.499   0.356  1.00  0.00     0.004 A 
BRANCH  25  29
ATOM     29  O   UNL     1       1.256  -1.318   1.049  1.00  0.00    -0.508 OA
ATOM     30  H   UNL     1       1.209  -1.933   1.799  1.00  0.00     0.293 HD
ENDBRANCH  25  29
ENDBRANCH   1  23
TORSDOF 6
