REMARK SMILES O=c1cc(-c2ccccc2)oc2cc(O)cc(O)c12
REMARK SMILES IDX 14 1 16 2 17 3 19 4 12 5 13 6 11 7 4 8 3 9 2 10 1 11 15 12
REMARK SMILES IDX 18 14 5 16 6 17 10 18 7 19 9 20 8 21
REMARK H PARENT 15 13 18 15
ROOT
ATOM      1  C   UNL     1      -3.741   0.559  -1.107  1.00  0.00     0.123 A 
ATOM      2  C   UNL     1      -4.215  -0.228  -0.061  1.00  0.00     0.093 A 
ATOM      3  C   UNL     1      -3.303  -0.816   0.813  1.00  0.00     0.134 A 
ATOM      4  C   UNL     1      -1.930  -0.616   0.637  1.00  0.00     0.107 A 
ATOM      5  C   UNL     1      -1.469   0.174  -0.414  1.00  0.00     0.146 A 
ATOM      6  C   UNL     1      -2.377   0.765  -1.291  1.00  0.00     0.094 A 
ATOM      7  O   UNL     1      -0.136   0.410  -0.639  1.00  0.00    -0.456 OA
ATOM      8  C   UNL     1       0.793  -0.172   0.211  1.00  0.00     0.138 C 
ATOM      9  C   UNL     1       0.475  -0.943   1.261  1.00  0.00     0.100 C 
ATOM     10  C   UNL     1      -0.942  -1.219   1.539  1.00  0.00     0.197 C 
ATOM     11  O   UNL     1      -1.288  -1.922   2.481  1.00  0.00    -0.289 OA
ENDROOT
BRANCH   1  12
ATOM     12  O   UNL     1      -4.595   1.155  -1.988  1.00  0.00    -0.508 OA
ATOM     13  H   UNL     1      -5.508   0.926  -1.744  1.00  0.00     0.293 HD
ENDBRANCH   1  12
BRANCH   3  14
ATOM     14  O   UNL     1      -3.822  -1.579   1.824  1.00  0.00    -0.507 OA
ATOM     15  H   UNL     1      -3.074  -1.928   2.360  1.00  0.00     0.293 HD
ENDBRANCH   3  14
BRANCH   8  16
ATOM     16  C   UNL     1       2.196   0.151  -0.116  1.00  0.00     0.017 A 
ATOM     17  C   UNL     1       3.202  -0.827  -0.085  1.00  0.00     0.012 A 
ATOM     18  C   UNL     1       2.545   1.457  -0.492  1.00  0.00     0.012 A 
ATOM     19  C   UNL     1       4.523  -0.503  -0.406  1.00  0.00     0.001 A 
ATOM     20  C   UNL     1       3.866   1.781  -0.813  1.00  0.00     0.001 A 
ATOM     21  C   UNL     1       4.854   0.801  -0.768  1.00  0.00     0.000 A 
ENDBRANCH   8  16
TORSDOF 3
