REMARK SMILES Cc1c(O)c(C)c2c(c1O)C(=O)C[C@@H](c1ccccc1)O2
REMARK SMILES IDX 6 1 5 2 7 3 21 4 14 5 13 6 11 7 12 8 8 9 9 10 2 11 3 12 1 13
REMARK SMILES IDX 4 14 15 16 16 17 20 18 17 19 19 20 18 21 10 22
REMARK H PARENT 4 15 10 23
ROOT
ATOM      1  C   UNL     1       1.396  -1.687   2.058  1.00  0.00     0.052 C 
ATOM      2  C   UNL     1       1.799  -0.636   1.057  1.00  0.00     0.034 A 
ATOM      3  C   UNL     1       0.861  -0.100   0.163  1.00  0.00     0.141 A 
ATOM      4  O   UNL     1      -0.430  -0.558   0.253  1.00  0.00    -0.484 OA
ATOM      5  C   UNL     1      -1.401   0.376  -0.241  1.00  0.00     0.211 C 
ATOM      6  C   UNL     1      -1.118   0.712  -1.696  1.00  0.00     0.131 C 
ATOM      7  C   UNL     1       0.254   1.315  -1.769  1.00  0.00     0.174 C 
ATOM      8  O   UNL     1       0.570   2.140  -2.625  1.00  0.00    -0.294 OA
ATOM      9  C   UNL     1       1.260   0.832  -0.800  1.00  0.00     0.102 A 
ATOM     10  C   UNL     1       2.594   1.262  -0.859  1.00  0.00     0.136 A 
ATOM     11  C   UNL     1       3.551   0.757   0.033  1.00  0.00     0.034 A 
ATOM     12  C   UNL     1       3.138  -0.215   0.963  1.00  0.00     0.128 A 
ATOM     13  C   UNL     1       4.982   1.218  -0.039  1.00  0.00     0.052 C 
ENDROOT
BRANCH  12  14
ATOM     14  O   UNL     1       4.031  -0.803   1.823  1.00  0.00    -0.507 OA
ATOM     15  H   UNL     1       4.937  -0.560   1.579  1.00  0.00     0.293 HD
ENDBRANCH  12  14
BRANCH   5  16
ATOM     16  C   UNL     1      -2.787  -0.224  -0.094  1.00  0.00    -0.007 A 
ATOM     17  C   UNL     1      -3.870   0.593   0.268  1.00  0.00     0.007 A 
ATOM     18  C   UNL     1      -3.026  -1.584  -0.348  1.00  0.00     0.007 A 
ATOM     19  C   UNL     1      -5.155   0.060   0.382  1.00  0.00     0.000 A 
ATOM     20  C   UNL     1      -4.312  -2.115  -0.232  1.00  0.00     0.000 A 
ATOM     21  C   UNL     1      -5.376  -1.293   0.133  1.00  0.00     0.000 A 
ENDBRANCH   5  16
BRANCH  10  22
ATOM     22  O   UNL     1       3.012   2.175  -1.796  1.00  0.00    -0.507 OA
ATOM     23  H   UNL     1       2.244   2.421  -2.361  1.00  0.00     0.293 HD
ENDBRANCH  10  22
TORSDOF 3
