REMARK SMILES O=C1C[C@@H](c2ccccc2)Oc2c(Cc3ccccc3O)c(O)c(Cc3ccccc3O)c(O)c21
REMARK SMILES IDX 13 1 22 2 24 3 33 4 35 5 12 6 11 7 4 8 3 9 2 10 1 11 14 12
REMARK SMILES IDX 15 13 20 14 19 15 18 16 16 17 17 18 21 19 23 21 25 23 26 24
REMARK SMILES IDX 27 25 31 26 28 27 30 28 29 29 32 30 34 32 5 34 6 35 10 36
REMARK SMILES IDX 7 37 9 38 8 39
REMARK H PARENT 21 20 23 22 32 31 34 33
ROOT
ATOM      1  C   UNL     1       0.299   0.713   0.066  1.00  0.00     0.042 A 
ATOM      2  C   UNL     1       1.631   0.607   0.513  1.00  0.00     0.130 A 
ATOM      3  C   UNL     1       2.199  -0.621   0.905  1.00  0.00     0.041 A 
ATOM      4  C   UNL     1       1.390  -1.766   0.833  1.00  0.00     0.137 A 
ATOM      5  C   UNL     1       0.062  -1.684   0.389  1.00  0.00     0.102 A 
ATOM      6  C   UNL     1      -0.476  -0.456  -0.007  1.00  0.00     0.142 A 
ATOM      7  O   UNL     1      -1.767  -0.327  -0.454  1.00  0.00    -0.484 OA
ATOM      8  C   UNL     1      -2.319  -1.533  -0.999  1.00  0.00     0.211 C 
ATOM      9  C   UNL     1      -2.255  -2.660   0.018  1.00  0.00     0.131 C 
ATOM     10  C   UNL     1      -0.814  -2.875   0.369  1.00  0.00     0.174 C 
ATOM     11  O   UNL     1      -0.364  -3.975   0.685  1.00  0.00    -0.294 OA
ENDROOT
BRANCH   1  12
ATOM     12  C   UNL     1      -0.283   2.058  -0.329  1.00  0.00     0.082 C 
BRANCH  12  13
ATOM     13  C   UNL     1      -1.074   2.740   0.766  1.00  0.00    -0.001 A 
ATOM     14  C   UNL     1      -0.481   3.474   1.801  1.00  0.00     0.119 A 
ATOM     15  C   UNL     1      -1.259   4.104   2.774  1.00  0.00     0.046 A 
ATOM     16  C   UNL     1      -2.648   4.002   2.736  1.00  0.00     0.004 A 
ATOM     17  C   UNL     1      -2.479   2.652   0.743  1.00  0.00     0.008 A 
ATOM     18  C   UNL     1      -3.259   3.275   1.719  1.00  0.00     0.001 A 
BRANCH  14  19
ATOM     19  O   UNL     1       0.869   3.638   1.929  1.00  0.00    -0.508 OA
ATOM     20  H   UNL     1       1.331   2.986   1.366  1.00  0.00     0.293 HD
ENDBRANCH  14  19
ENDBRANCH  12  13
ENDBRANCH   1  12
BRANCH   2  21
ATOM     21  O   UNL     1       2.349   1.776   0.574  1.00  0.00    -0.507 OA
ATOM     22  H   UNL     1       3.307   1.566   0.523  1.00  0.00     0.293 HD
ENDBRANCH   2  21
BRANCH   3  23
ATOM     23  C   UNL     1       3.626  -0.725   1.406  1.00  0.00     0.082 C 
BRANCH  23  24
ATOM     24  C   UNL     1       4.653  -0.875   0.305  1.00  0.00    -0.001 A 
ATOM     25  C   UNL     1       4.950  -2.153  -0.196  1.00  0.00     0.008 A 
ATOM     26  C   UNL     1       5.322   0.223  -0.248  1.00  0.00     0.119 A 
ATOM     27  C   UNL     1       5.893  -2.322  -1.211  1.00  0.00     0.001 A 
ATOM     28  C   UNL     1       6.266   0.062  -1.262  1.00  0.00     0.046 A 
ATOM     29  C   UNL     1       6.552  -1.216  -1.743  1.00  0.00     0.004 A 
BRANCH  26  30
ATOM     30  O   UNL     1       5.027   1.478   0.215  1.00  0.00    -0.508 OA
ATOM     31  H   UNL     1       5.688   2.094  -0.151  1.00  0.00     0.293 HD
ENDBRANCH  26  30
ENDBRANCH  23  24
ENDBRANCH   3  23
BRANCH   4  32
ATOM     32  O   UNL     1       1.938  -2.963   1.229  1.00  0.00    -0.507 OA
ATOM     33  H   UNL     1       1.252  -3.665   1.149  1.00  0.00     0.293 HD
ENDBRANCH   4  32
BRANCH   8  34
ATOM     34  C   UNL     1      -3.753  -1.255  -1.408  1.00  0.00    -0.007 A 
ATOM     35  C   UNL     1      -4.219  -1.663  -2.666  1.00  0.00     0.007 A 
ATOM     36  C   UNL     1      -4.644  -0.609  -0.535  1.00  0.00     0.007 A 
ATOM     37  C   UNL     1      -5.542  -1.425  -3.044  1.00  0.00     0.000 A 
ATOM     38  C   UNL     1      -5.966  -0.372  -0.916  1.00  0.00     0.000 A 
ATOM     39  C   UNL     1      -6.414  -0.780  -2.170  1.00  0.00     0.000 A 
ENDBRANCH   8  34
TORSDOF 9
