REMARK SMILES CC(C)=CCc1cc(-c2coc3c(CC=C(C)C)c(O)ccc3c2=O)ccc1O
REMARK SMILES IDX 9 1 10 2 11 3 12 4 23 5 24 6 25 7 22 8 21 9 19 10 13 11 8 12
REMARK SMILES IDX 6 13 7 14 28 15 27 16 26 17 5 18 4 19 2 20 1 21 3 22 29 23
REMARK SMILES IDX 14 25 15 26 16 27 17 28 18 29 20 30
REMARK H PARENT 29 24 20 31
ROOT
ATOM      1  C   UNL     1      -0.004  -1.483  -0.669  1.00  0.00     0.065 C 
ATOM      2  C   UNL     1      -0.608  -0.856   0.352  1.00  0.00     0.208 C 
ATOM      3  O   UNL     1      -1.927  -0.952   0.715  1.00  0.00    -0.463 OA
ATOM      4  C   UNL     1      -2.753  -1.757  -0.031  1.00  0.00     0.144 A 
ATOM      5  C   UNL     1      -2.275  -2.490  -1.119  1.00  0.00     0.066 A 
ATOM      6  C   UNL     1      -0.848  -2.400  -1.484  1.00  0.00     0.200 C 
ATOM      7  O   UNL     1      -0.403  -3.056  -2.420  1.00  0.00    -0.288 OA
ATOM      8  C   UNL     1      -3.137  -3.302  -1.862  1.00  0.00     0.020 A 
ATOM      9  C   UNL     1      -4.486  -3.376  -1.517  1.00  0.00     0.047 A 
ATOM     10  C   UNL     1      -4.962  -2.640  -0.431  1.00  0.00     0.122 A 
ATOM     11  C   UNL     1      -4.111  -1.828   0.334  1.00  0.00     0.041 A 
ENDROOT
BRANCH   1  12
ATOM     12  C   UNL     1       1.434  -1.285  -0.927  1.00  0.00    -0.011 A 
ATOM     13  C   UNL     1       3.355   0.208  -1.249  1.00  0.00    -0.002 A 
ATOM     14  C   UNL     1       1.982   0.006  -1.012  1.00  0.00     0.016 A 
ATOM     15  C   UNL     1       4.176  -0.913  -1.399  1.00  0.00     0.119 A 
ATOM     16  C   UNL     1       3.650  -2.202  -1.327  1.00  0.00     0.047 A 
ATOM     17  C   UNL     1       2.285  -2.384  -1.094  1.00  0.00     0.013 A 
BRANCH  13  18
ATOM     18  C   UNL     1       3.904   1.615  -1.310  1.00  0.00     0.066 C 
BRANCH  18  19
ATOM     19  C   UNL     1       4.142   2.199   0.059  1.00  0.00    -0.023 C 
ATOM     20  C   UNL     1       5.319   2.500   0.644  1.00  0.00    -0.080 C 
ATOM     21  C   UNL     1       5.357   3.097   2.027  1.00  0.00     0.039 C 
ATOM     22  C   UNL     1       6.674   2.276   0.033  1.00  0.00     0.039 C 
ENDBRANCH  18  19
ENDBRANCH  13  18
BRANCH  15  23
ATOM     23  O   UNL     1       5.511  -0.736  -1.628  1.00  0.00    -0.508 OA
ATOM     24  H   UNL     1       5.934  -1.607  -1.695  1.00  0.00     0.293 HD
ENDBRANCH  15  23
ENDBRANCH   1  12
BRANCH  11  25
ATOM     25  C   UNL     1      -4.645  -1.015   1.495  1.00  0.00     0.070 C 
BRANCH  25  26
ATOM     26  C   UNL     1      -5.070   0.367   1.073  1.00  0.00    -0.023 C 
ATOM     27  C   UNL     1      -4.544   1.555   1.431  1.00  0.00    -0.080 C 
ATOM     28  C   UNL     1      -5.124   2.838   0.896  1.00  0.00     0.039 C 
ATOM     29  C   UNL     1      -3.373   1.748   2.353  1.00  0.00     0.039 C 
ENDBRANCH  25  26
ENDBRANCH  11  25
BRANCH  10  30
ATOM     30  O   UNL     1      -6.287  -2.705  -0.102  1.00  0.00    -0.508 OA
ATOM     31  H   UNL     1      -6.743  -3.294  -0.726  1.00  0.00     0.293 HD
ENDBRANCH  10  30
TORSDOF 7
