REMARK SMILES COc1cc(-c2cc3ccc(O)cc3o2)c(OC)cc1O
REMARK SMILES IDX 6 1 15 2 14 3 8 4 7 5 9 6 10 7 11 8 13 9 5 10 16 11 19 12
REMARK SMILES IDX 20 13 4 14 3 15 17 16 18 17 21 18 2 20 1 21 12 22
REMARK H PARENT 21 19 12 23
ROOT
ATOM      1  C   UNL     1       0.561  -0.246  -0.162  1.00  0.00     0.139 A 
ATOM      2  O   UNL     1       1.151   0.865   0.384  1.00  0.00    -0.456 OA
ATOM      3  C   UNL     1       2.482   0.802   0.109  1.00  0.00     0.138 A 
ATOM      4  C   UNL     1       2.769  -0.342  -0.622  1.00  0.00     0.021 A 
ATOM      5  C   UNL     1       1.528  -1.009  -0.792  1.00  0.00     0.059 A 
ATOM      6  C   UNL     1       4.100  -0.581  -1.006  1.00  0.00     0.016 A 
ATOM      7  C   UNL     1       5.081   0.348  -0.632  1.00  0.00     0.047 A 
ATOM      8  C   UNL     1       4.743   1.483   0.104  1.00  0.00     0.119 A 
ATOM      9  C   UNL     1       3.431   1.747   0.498  1.00  0.00     0.093 A 
ENDROOT
BRANCH   1  10
ATOM     10  C   UNL     1      -0.889  -0.361   0.035  1.00  0.00     0.063 A 
ATOM     11  C   UNL     1      -1.564  -1.605  -0.015  1.00  0.00     0.133 A 
ATOM     12  C   UNL     1      -2.952  -1.646   0.165  1.00  0.00     0.097 A 
ATOM     13  C   UNL     1      -3.655  -0.470   0.398  1.00  0.00     0.161 A 
ATOM     14  C   UNL     1      -1.637   0.815   0.275  1.00  0.00     0.066 A 
ATOM     15  C   UNL     1      -3.017   0.769   0.459  1.00  0.00     0.161 A 
BRANCH  11  16
ATOM     16  O   UNL     1      -0.799  -2.724  -0.233  1.00  0.00    -0.496 OA
ATOM     17  C   UNL     1      -1.444  -3.991  -0.185  1.00  0.00     0.278 C 
ENDBRANCH  11  16
BRANCH  13  18
ATOM     18  O   UNL     1      -5.011  -0.554   0.570  1.00  0.00    -0.504 OA
ATOM     19  H   UNL     1      -5.304   0.367   0.719  1.00  0.00     0.293 HD
ENDBRANCH  13  18
BRANCH  15  20
ATOM     20  O   UNL     1      -3.843   1.837   0.695  1.00  0.00    -0.493 OA
ATOM     21  C   UNL     1      -3.222   3.115   0.783  1.00  0.00     0.278 C 
ENDBRANCH  15  20
ENDBRANCH   1  10
BRANCH   8  22
ATOM     22  O   UNL     1       5.756   2.340   0.430  1.00  0.00    -0.508 OA
ATOM     23  H   UNL     1       5.387   3.074   0.948  1.00  0.00     0.293 HD
ENDBRANCH   8  22
TORSDOF 5
