REMARK SMILES CC12CCC3C(CCC4=CC(=O)CCC43C)C1CCC2=O
REMARK SMILES IDX 1 1 2 2 3 3 4 4 5 5 6 6 17 7 18 8 19 9 20 10 21 11 7 12 8 13
REMARK SMILES IDX 9 14 10 15 11 16 12 17 13 18 14 19 15 20 16 21
REMARK H PARENT
ROOT
ATOM      1  C   UNL     1       3.850  -0.423   0.866  1.00  0.00     0.020 C 
ATOM      2  C   UNL     1       2.576   0.287   0.391  1.00  0.00     0.029 C 
ATOM      3  C   UNL     1       1.613   0.560   1.560  1.00  0.00     0.015 C 
ATOM      4  C   UNL     1       0.638  -0.592   1.773  1.00  0.00     0.006 C 
ATOM      5  C   UNL     1      -0.239  -0.871   0.535  1.00  0.00     0.002 C 
ATOM      6  C   UNL     1       0.374  -0.314  -0.778  1.00  0.00    -0.003 C 
ATOM      7  C   UNL     1       1.910  -0.483  -0.786  1.00  0.00     0.006 C 
ATOM      8  C   UNL     1       2.593   0.086  -2.038  1.00  0.00     0.013 C 
ATOM      9  C   UNL     1       2.771   1.572  -1.768  1.00  0.00     0.076 C 
ATOM     10  C   UNL     1       2.974   1.598  -0.277  1.00  0.00     0.139 C 
ATOM     11  O   UNL     1       3.397   2.578   0.326  1.00  0.00    -0.299 OA
ATOM     12  C   UNL     1      -0.312  -0.984  -1.992  1.00  0.00     0.008 C 
ATOM     13  C   UNL     1      -1.772  -1.382  -1.733  1.00  0.00     0.032 C 
ATOM     14  C   UNL     1      -2.405  -0.460  -0.724  1.00  0.00    -0.060 C 
ATOM     15  C   UNL     1      -3.421   0.348  -1.073  1.00  0.00     0.047 C 
ATOM     16  C   UNL     1      -3.998   1.324  -0.120  1.00  0.00     0.155 C 
ATOM     17  O   UNL     1      -4.992   1.968  -0.450  1.00  0.00    -0.295 OA
ATOM     18  C   UNL     1      -3.364   1.472   1.241  1.00  0.00     0.081 C 
ATOM     19  C   UNL     1      -1.920   0.977   1.260  1.00  0.00     0.019 C 
ATOM     20  C   UNL     1      -1.754  -0.446   0.665  1.00  0.00    -0.008 C 
ATOM     21  C   UNL     1      -2.476  -1.478   1.562  1.00  0.00     0.016 C 
ENDROOT
TORSDOF 0
