REMARK SMILES COc1ccc([C@@H]2CC(=O)c3c(O)cc(O)cc3O2)cc1O
REMARK SMILES IDX 7 1 8 2 9 3 10 4 11 5 18 6 19 7 17 8 15 9 14 10 12 11 6 12
REMARK SMILES IDX 3 13 4 14 21 15 5 16 20 17 2 18 1 19 22 20 13 22 16 24
REMARK H PARENT 22 21 13 23 16 25
ROOT
ATOM      1  C   UNL     1       0.580  -0.381  -1.995  1.00  0.00     0.211 C 
ATOM      2  C   UNL     1       1.341  -1.703  -1.973  1.00  0.00     0.131 C 
ATOM      3  C   UNL     1       1.977  -1.898  -0.627  1.00  0.00     0.174 C 
ATOM      4  O   UNL     1       2.195  -3.008  -0.147  1.00  0.00    -0.294 OA
ATOM      5  C   UNL     1       2.413  -0.685   0.085  1.00  0.00     0.102 A 
ATOM      6  C   UNL     1       2.153   0.556  -0.500  1.00  0.00     0.138 A 
ATOM      7  O   UNL     1       1.468   0.712  -1.677  1.00  0.00    -0.484 OA
ATOM      8  C   UNL     1       2.619   1.725   0.105  1.00  0.00     0.093 A 
ATOM      9  C   UNL     1       3.314   1.640   1.309  1.00  0.00     0.123 A 
ATOM     10  C   UNL     1       3.559   0.410   1.911  1.00  0.00     0.093 A 
ATOM     11  C   UNL     1       3.111  -0.755   1.295  1.00  0.00     0.133 A 
ENDROOT
BRANCH   1  12
ATOM     12  C   UNL     1      -0.715  -0.270  -1.197  1.00  0.00    -0.003 A 
ATOM     13  C   UNL     1      -3.146   0.060   0.224  1.00  0.00     0.160 A 
ATOM     14  C   UNL     1      -2.566   1.145  -0.423  1.00  0.00     0.051 A 
ATOM     15  C   UNL     1      -2.509  -1.182   0.145  1.00  0.00     0.158 A 
ATOM     16  C   UNL     1      -1.366   0.979  -1.129  1.00  0.00     0.011 A 
ATOM     17  C   UNL     1      -1.316  -1.358  -0.552  1.00  0.00     0.057 A 
BRANCH  13  18
ATOM     18  O   UNL     1      -4.310   0.072   0.948  1.00  0.00    -0.493 OA
ATOM     19  C   UNL     1      -4.968   1.327   1.074  1.00  0.00     0.278 C 
ENDBRANCH  13  18
BRANCH  15  20
ATOM     20  O   UNL     1      -3.057  -2.275   0.762  1.00  0.00    -0.504 OA
ATOM     21  H   UNL     1      -3.865  -1.941   1.197  1.00  0.00     0.293 HD
ENDBRANCH  15  20
ENDBRANCH   1  12
BRANCH  11  22
ATOM     22  O   UNL     1       3.400  -1.938   1.921  1.00  0.00    -0.507 OA
ATOM     23  H   UNL     1       3.034  -2.671   1.376  1.00  0.00     0.293 HD
ENDBRANCH  11  22
BRANCH   9  24
ATOM     24  O   UNL     1       3.778   2.758   1.938  1.00  0.00    -0.508 OA
ATOM     25  H   UNL     1       3.541   3.540   1.413  1.00  0.00     0.293 HD
ENDBRANCH   9  24
TORSDOF 5
