REMARK SMILES O=C1C[C@@H](c2ccccc2)Oc2cc(O)c(Cc3ccccc3O)c(O)c21
REMARK SMILES IDX 17 1 16 2 1 3 2 4 3 5 27 6 4 7 12 8 25 9 11 10 13 11 14 12
REMARK SMILES IDX 5 13 6 14 10 15 7 16 9 17 8 18 26 19 15 21 18 23 19 24 23 25
REMARK SMILES IDX 20 26 22 27 21 28 24 29
REMARK H PARENT 26 20 15 22 24 30
ROOT
ATOM      1  C   UNL     1       3.365  -1.171   0.746  1.00  0.00     0.082 C 
ENDROOT
BRANCH   1   2
ATOM      2  C   UNL     1       1.884  -0.945   0.493  1.00  0.00     0.041 A 
ATOM      3  O   UNL     1      -0.550   1.611   2.837  1.00  0.00    -0.294 OA
ATOM      4  C   UNL     1      -1.052   1.039   1.872  1.00  0.00     0.174 C 
ATOM      5  C   UNL     1      -2.464   1.285   1.425  1.00  0.00     0.131 C 
ATOM      6  C   UNL     1      -0.241   0.113   1.057  1.00  0.00     0.102 A 
ATOM      7  C   UNL     1      -2.989   0.001   0.798  1.00  0.00     0.211 C 
ATOM      8  C   UNL     1      -0.858  -0.529  -0.016  1.00  0.00     0.138 A 
ATOM      9  C   UNL     1       1.122  -0.099   1.316  1.00  0.00     0.137 A 
ATOM     10  O   UNL     1      -2.184  -0.382  -0.330  1.00  0.00    -0.484 OA
ATOM     11  C   UNL     1      -0.115  -1.355  -0.854  1.00  0.00     0.094 A 
ATOM     12  C   UNL     1       1.241  -1.561  -0.593  1.00  0.00     0.126 A 
BRANCH   7  13
ATOM     13  C   UNL     1      -4.424   0.180   0.339  1.00  0.00    -0.007 A 
ATOM     14  C   UNL     1      -5.480  -0.264   1.151  1.00  0.00     0.007 A 
ATOM     15  C   UNL     1      -4.729   0.819  -0.873  1.00  0.00     0.007 A 
ATOM     16  C   UNL     1      -6.806  -0.082   0.753  1.00  0.00     0.000 A 
ATOM     17  C   UNL     1      -6.055   0.999  -1.269  1.00  0.00     0.000 A 
ATOM     18  C   UNL     1      -7.093   0.548  -0.456  1.00  0.00     0.000 A 
ENDBRANCH   7  13
BRANCH   9  19
ATOM     19  O   UNL     1       1.752   0.518   2.368  1.00  0.00    -0.507 OA
ATOM     20  H   UNL     1       1.099   1.079   2.844  1.00  0.00     0.293 HD
ENDBRANCH   9  19
BRANCH  12  21
ATOM     21  O   UNL     1       1.960  -2.393  -1.404  1.00  0.00    -0.507 OA
ATOM     22  H   UNL     1       1.414  -2.670  -2.157  1.00  0.00     0.293 HD
ENDBRANCH  12  21
ENDBRANCH   1   2
BRANCH   1  23
ATOM     23  C   UNL     1       4.289  -0.355  -0.138  1.00  0.00    -0.001 A 
ATOM     24  C   UNL     1       4.224   1.049  -0.118  1.00  0.00     0.008 A 
ATOM     25  C   UNL     1       5.248  -0.958  -0.962  1.00  0.00     0.119 A 
ATOM     26  C   UNL     1       5.070   1.820  -0.918  1.00  0.00     0.001 A 
ATOM     27  C   UNL     1       6.096  -0.191  -1.765  1.00  0.00     0.046 A 
ATOM     28  C   UNL     1       6.003   1.200  -1.744  1.00  0.00     0.004 A 
BRANCH  25  29
ATOM     29  O   UNL     1       5.365  -2.320  -0.969  1.00  0.00    -0.508 OA
ATOM     30  H   UNL     1       6.024  -2.573  -1.634  1.00  0.00     0.293 HD
ENDBRANCH  25  29
ENDBRANCH   1  23
TORSDOF 6
