REMARK SMILES Cc1c(O)c(C=O)c2c(c1O)C(=O)C[C@@H](c1ccccc1)O2
REMARK SMILES IDX 5 1 8 2 22 3 15 4 14 5 12 6 13 7 9 8 10 9 2 10 3 11 1 12
REMARK SMILES IDX 6 13 7 14 4 15 16 17 17 18 21 19 18 20 20 21 19 22 11 23
REMARK H PARENT 4 16 11 24
ROOT
ATOM      1  C   UNL     1      -1.745  -1.074   0.837  1.00  0.00     0.099 A 
ATOM      2  C   UNL     1      -0.833  -0.115   0.375  1.00  0.00     0.149 A 
ATOM      3  O   UNL     1       0.511  -0.354   0.490  1.00  0.00    -0.483 OA
ATOM      4  C   UNL     1       1.301   0.265  -0.540  1.00  0.00     0.211 C 
ATOM      5  C   UNL     1       1.131   1.774  -0.437  1.00  0.00     0.131 C 
ATOM      6  C   UNL     1      -0.327   2.110  -0.566  1.00  0.00     0.174 C 
ATOM      7  O   UNL     1      -0.719   3.199  -0.980  1.00  0.00    -0.294 OA
ATOM      8  C   UNL     1      -1.310   1.099  -0.123  1.00  0.00     0.103 A 
ATOM      9  C   UNL     1      -2.690   1.358  -0.168  1.00  0.00     0.136 A 
ATOM     10  C   UNL     1      -3.619   0.413   0.297  1.00  0.00     0.034 A 
ATOM     11  C   UNL     1      -3.126  -0.806   0.797  1.00  0.00     0.136 A 
ATOM     12  C   UNL     1      -5.097   0.702   0.250  1.00  0.00     0.052 C 
ENDROOT
BRANCH   1  13
ATOM     13  C   UNL     1      -1.296  -2.396   1.344  1.00  0.00     0.267 C 
ATOM     14  O   UNL     1      -0.202  -2.885   1.088  1.00  0.00    -0.298 OA
ENDBRANCH   1  13
BRANCH  11  15
ATOM     15  O   UNL     1      -3.982  -1.779   1.249  1.00  0.00    -0.507 OA
ATOM     16  H   UNL     1      -4.907  -1.516   1.113  1.00  0.00     0.293 HD
ENDBRANCH  11  15
BRANCH   4  17
ATOM     17  C   UNL     1       2.732  -0.237  -0.399  1.00  0.00    -0.007 A 
ATOM     18  C   UNL     1       3.857   0.597  -0.504  1.00  0.00     0.007 A 
ATOM     19  C   UNL     1       2.954  -1.614  -0.205  1.00  0.00     0.007 A 
ATOM     20  C   UNL     1       5.151   0.077  -0.399  1.00  0.00     0.000 A 
ATOM     21  C   UNL     1       4.246  -2.133  -0.099  1.00  0.00     0.000 A 
ATOM     22  C   UNL     1       5.345  -1.287  -0.196  1.00  0.00     0.000 A 
ENDBRANCH   4  17
BRANCH   9  23
ATOM     23  O   UNL     1      -3.180   2.544  -0.656  1.00  0.00    -0.507 OA
ATOM     24  H   UNL     1      -2.424   3.122  -0.909  1.00  0.00     0.293 HD
ENDBRANCH   9  23
TORSDOF 4
