REMARK SMILES CC(C)(C#N)n1cnc(-c2ccc(Cl)cc2Cl)n1
REMARK SMILES IDX 6 1 7 2 8 3 9 4 18 5 2 6 5 7 4 8 1 9 3 10 10 11 11 12 16 13
REMARK SMILES IDX 12 14 15 15 13 16 17 17 14 18
REMARK H PARENT
ROOT
ATOM      1  N   UNL     1      -1.480  -0.566   0.339  1.00  0.00    -0.233 N 
ATOM      2  C   UNL     1      -1.092  -1.864   0.211  1.00  0.00     0.222 A 
ATOM      3  N   UNL     1       0.202  -1.917  -0.004  1.00  0.00    -0.215 NA
ATOM      4  C   UNL     1       0.598  -0.599   0.023  1.00  0.00     0.182 A 
ATOM      5  N   UNL     1      -0.419   0.257   0.194  1.00  0.00    -0.149 NA
ENDROOT
BRANCH   1   6
ATOM      6  C   UNL     1      -2.811  -0.007   0.618  1.00  0.00     0.145 C 
ATOM      7  N   UNL     1      -4.656  -1.896   0.640  1.00  0.00    -0.196 NA
ATOM      8  C   UNL     1      -3.849  -1.062   0.630  1.00  0.00     0.092 C 
ATOM      9  C   UNL     1      -2.799   0.679   1.996  1.00  0.00     0.053 C 
ATOM     10  C   UNL     1      -3.188   1.021  -0.467  1.00  0.00     0.053 C 
ENDBRANCH   1   6
BRANCH   4  11
ATOM     11  C   UNL     1       1.986  -0.212  -0.198  1.00  0.00     0.040 A 
ATOM     12  C   UNL     1       2.744  -0.981  -1.102  1.00  0.00     0.015 A 
ATOM     13  C   UNL     1       2.606   0.876   0.441  1.00  0.00     0.053 A 
ATOM     14  C   UNL     1       4.077  -0.663  -1.378  1.00  0.00     0.021 A 
ATOM     15  C   UNL     1       3.943   1.193   0.161  1.00  0.00     0.041 A 
ATOM     16  C   UNL     1       4.668   0.426  -0.747  1.00  0.00     0.042 A 
ATOM     17  Cl  UNL     1       1.822   1.856   1.635  1.00  0.00    -0.083 Cl
ATOM     18  Cl  UNL     1       6.307   0.822  -1.084  1.00  0.00    -0.084 Cl
ENDBRANCH   4  11
TORSDOF 2
