REMARK SMILES CC(C)=CCc1c2c(c(O)c3c1OC(c1ccc(O)cc1)CC3=O)C=CC(C)(C)O2
REMARK SMILES IDX 6 1 12 2 13 3 14 4 22 5 23 6 24 7 11 8 9 9 8 10 7 11 30 12
REMARK SMILES IDX 27 13 28 14 29 15 26 16 25 17 5 18 4 19 2 20 1 21 3 22 15 23
REMARK SMILES IDX 16 24 21 25 17 26 20 27 18 28 19 29 10 31
REMARK H PARENT 19 30 10 32
ROOT
ATOM      1  C   UNL     1      -1.061  -0.496   0.539  1.00  0.00     0.042 A 
ATOM      2  C   UNL     1       0.243  -1.010   0.437  1.00  0.00     0.142 A 
ATOM      3  O   UNL     1       1.282  -0.154   0.712  1.00  0.00    -0.484 OA
ATOM      4  C   UNL     1       2.494  -0.503   0.030  1.00  0.00     0.211 C 
ATOM      5  C   UNL     1       2.937  -1.899   0.435  1.00  0.00     0.131 C 
ATOM      6  C   UNL     1       1.843  -2.856   0.062  1.00  0.00     0.174 C 
ATOM      7  O   UNL     1       2.060  -4.033  -0.220  1.00  0.00    -0.294 OA
ATOM      8  C   UNL     1       0.454  -2.350   0.098  1.00  0.00     0.103 A 
ATOM      9  C   UNL     1      -0.635  -3.189  -0.173  1.00  0.00     0.141 A 
ATOM     10  C   UNL     1      -1.944  -2.689  -0.106  1.00  0.00     0.060 A 
ATOM     11  C   UNL     1      -2.148  -1.346   0.246  1.00  0.00     0.138 A 
ATOM     12  O   UNL     1      -3.397  -0.790   0.347  1.00  0.00    -0.483 OA
ATOM     13  C   UNL     1      -4.541  -1.513  -0.148  1.00  0.00     0.122 C 
ATOM     14  C   UNL     1      -4.982  -0.825  -1.445  1.00  0.00     0.061 C 
ATOM     15  C   UNL     1      -5.631  -1.351   0.918  1.00  0.00     0.061 C 
ATOM     16  C   UNL     1      -4.310  -2.980  -0.403  1.00  0.00     0.021 C 
ATOM     17  C   UNL     1      -3.098  -3.539  -0.380  1.00  0.00     0.015 C 
ENDROOT
BRANCH   1  18
ATOM     18  C   UNL     1      -1.289   0.961   0.895  1.00  0.00     0.070 C 
BRANCH  18  19
ATOM     19  C   UNL     1      -1.327   1.841  -0.328  1.00  0.00    -0.023 C 
ATOM     20  C   UNL     1      -0.469   2.815  -0.689  1.00  0.00    -0.080 C 
ATOM     21  C   UNL     1       0.755   3.230   0.082  1.00  0.00     0.039 C 
ATOM     22  C   UNL     1      -0.687   3.593  -1.960  1.00  0.00     0.039 C 
ENDBRANCH  18  19
ENDBRANCH   1  18
BRANCH   4  23
ATOM     23  C   UNL     1       3.558   0.523   0.370  1.00  0.00    -0.007 A 
ATOM     24  C   UNL     1       4.423   0.997  -0.630  1.00  0.00     0.011 A 
ATOM     25  C   UNL     1       3.718   1.000   1.682  1.00  0.00     0.011 A 
ATOM     26  C   UNL     1       5.417   1.932  -0.329  1.00  0.00     0.046 A 
ATOM     27  C   UNL     1       4.711   1.934   1.982  1.00  0.00     0.046 A 
ATOM     28  C   UNL     1       5.551   2.393   0.976  1.00  0.00     0.115 A 
BRANCH  28  29
ATOM     29  O   UNL     1       6.506   3.306   1.313  1.00  0.00    -0.508 OA
ATOM     30  H   UNL     1       7.010   3.537   0.516  1.00  0.00     0.293 HD
ENDBRANCH  28  29
ENDBRANCH   4  23
BRANCH   9  31
ATOM     31  O   UNL     1      -0.457  -4.512  -0.508  1.00  0.00    -0.506 OA
ATOM     32  H   UNL     1       0.506  -4.715  -0.490  1.00  0.00     0.293 HD
ENDBRANCH   9  31
TORSDOF 5
