REMARK SMILES O=C1c2c(O)cc(O)cc2O[C@H](c2ccc(O)c(O)c2)[C@H]1c1c(O)cc(O)c2c1O[C@H](c1ccc(O)c(O)c1)[C@@H](O)C2=O
REMARK SMILES IDX 7 1 6 2 4 3 3 4 10 5 9 6 11 7 12 8 21 9 2 10 1 11 8 12 5 14
REMARK SMILES IDX 13 16 14 17 20 18 15 19 18 20 16 21 19 22 17 24 22 26 23 27
REMARK SMILES IDX 29 28 25 29 28 30 30 31 26 32 42 33 31 34 40 35 43 36 24 37
REMARK SMILES IDX 27 39 32 41 33 42 39 43 34 44 37 45 35 46 38 47 36 49 41 51
REMARK H PARENT 8 13 5 15 19 23 17 25 24 38 27 40 38 48 36 50 41 52
ROOT
ATOM      1  C   UNL     1      -5.932  -2.670  -1.201  1.00  0.00     0.123 A 
ATOM      2  C   UNL     1      -5.276  -3.896  -1.231  1.00  0.00     0.093 A 
ATOM      3  C   UNL     1      -3.904  -3.937  -0.999  1.00  0.00     0.133 A 
ATOM      4  C   UNL     1      -3.195  -2.761  -0.719  1.00  0.00     0.102 A 
ATOM      5  C   UNL     1      -3.868  -1.543  -0.677  1.00  0.00     0.138 A 
ATOM      6  C   UNL     1      -5.237  -1.493  -0.936  1.00  0.00     0.093 A 
ATOM      7  O   UNL     1      -3.242  -0.352  -0.447  1.00  0.00    -0.484 OA
ATOM      8  C   UNL     1      -2.113  -0.465   0.439  1.00  0.00     0.219 C 
ATOM      9  C   UNL     1      -1.069  -1.479  -0.069  1.00  0.00     0.144 C 
ATOM     10  C   UNL     1      -1.737  -2.771  -0.514  1.00  0.00     0.182 C 
ATOM     11  O   UNL     1      -1.118  -3.810  -0.756  1.00  0.00    -0.293 OA
ENDROOT
BRANCH   1  12
ATOM     12  O   UNL     1      -7.272  -2.576  -1.436  1.00  0.00    -0.508 OA
ATOM     13  H   UNL     1      -7.622  -3.465  -1.615  1.00  0.00     0.293 HD
ENDBRANCH   1  12
BRANCH   3  14
ATOM     14  O   UNL     1      -3.307  -5.167  -1.069  1.00  0.00    -0.507 OA
ATOM     15  H   UNL     1      -2.335  -5.036  -0.976  1.00  0.00     0.293 HD
ENDBRANCH   3  14
BRANCH   8  16
ATOM     16  C   UNL     1      -1.512   0.935   0.538  1.00  0.00    -0.003 A 
ATOM     17  C   UNL     1      -1.320   1.722  -0.616  1.00  0.00     0.011 A 
ATOM     18  C   UNL     1      -1.088   1.438   1.777  1.00  0.00     0.057 A 
ATOM     19  C   UNL     1      -0.715   2.979  -0.541  1.00  0.00     0.050 A 
ATOM     20  C   UNL     1      -0.479   2.685   1.840  1.00  0.00     0.157 A 
ATOM     21  C   UNL     1      -0.290   3.450   0.693  1.00  0.00     0.157 A 
BRANCH  20  22
ATOM     22  O   UNL     1      -0.046   3.152   3.048  1.00  0.00    -0.504 OA
ATOM     23  H   UNL     1       0.298   4.047   2.855  1.00  0.00     0.293 HD
ENDBRANCH  20  22
BRANCH  21  24
ATOM     24  O   UNL     1       0.340   4.658   0.823  1.00  0.00    -0.504 OA
ATOM     25  H   UNL     1       0.391   5.057  -0.065  1.00  0.00     0.293 HD
ENDBRANCH  21  24
ENDBRANCH   8  16
BRANCH   9  26
ATOM     26  C   UNL     1       0.024  -1.750   0.967  1.00  0.00     0.052 A 
ATOM     27  C   UNL     1      -0.236  -2.523   2.112  1.00  0.00     0.127 A 
ATOM     28  C   UNL     1       1.312  -1.206   0.821  1.00  0.00     0.142 A 
ATOM     29  C   UNL     1       0.760  -2.809   3.044  1.00  0.00     0.093 A 
ATOM     30  C   UNL     1       2.322  -1.505   1.742  1.00  0.00     0.105 A 
ATOM     31  O   UNL     1       1.537  -0.384  -0.254  1.00  0.00    -0.481 OA
ATOM     32  C   UNL     1       2.042  -2.310   2.849  1.00  0.00     0.133 A 
ATOM     33  C   UNL     1       3.671  -0.950   1.521  1.00  0.00     0.202 C 
ATOM     34  C   UNL     1       2.523   0.630   0.019  1.00  0.00     0.240 C 
ATOM     35  C   UNL     1       3.869  -0.031   0.328  1.00  0.00     0.231 C 
ATOM     36  O   UNL     1       4.591  -1.241   2.288  1.00  0.00    -0.291 OA
BRANCH  27  37
ATOM     37  O   UNL     1      -1.506  -2.986   2.316  1.00  0.00    -0.507 OA
ATOM     38  H   UNL     1      -1.498  -3.607   3.067  1.00  0.00     0.293 HD
ENDBRANCH  27  37
BRANCH  32  39
ATOM     39  O   UNL     1       2.977  -2.639   3.793  1.00  0.00    -0.507 OA
ATOM     40  H   UNL     1       3.837  -2.238   3.533  1.00  0.00     0.293 HD
ENDBRANCH  32  39
BRANCH  34  41
ATOM     41  C   UNL     1       2.595   1.579  -1.169  1.00  0.00    -0.001 A 
ATOM     42  C   UNL     1       2.219   1.185  -2.467  1.00  0.00     0.012 A 
ATOM     43  C   UNL     1       3.034   2.901  -0.961  1.00  0.00     0.057 A 
ATOM     44  C   UNL     1       2.252   2.095  -3.527  1.00  0.00     0.050 A 
ATOM     45  C   UNL     1       3.067   3.797  -2.023  1.00  0.00     0.157 A 
ATOM     46  C   UNL     1       2.671   3.395  -3.294  1.00  0.00     0.157 A 
BRANCH  45  47
ATOM     47  O   UNL     1       3.477   5.091  -1.858  1.00  0.00    -0.504 OA
ATOM     48  H   UNL     1       3.879   5.163  -0.974  1.00  0.00     0.293 HD
ENDBRANCH  45  47
BRANCH  46  49
ATOM     49  O   UNL     1       2.696   4.284  -4.330  1.00  0.00    -0.504 OA
ATOM     50  H   UNL     1       3.052   5.107  -3.940  1.00  0.00     0.293 HD
ENDBRANCH  46  49
ENDBRANCH  34  41
BRANCH  35  51
ATOM     51  O   UNL     1       4.875   0.924   0.678  1.00  0.00    -0.381 OA
ATOM     52  H   UNL     1       5.595   0.416   1.103  1.00  0.00     0.211 HD
ENDBRANCH  35  51
ENDBRANCH   9  26
TORSDOF 12
