REMARK SMILES COc1ccc2c(c1)O[C@@H]1c3ccc(O)cc3OC[C@H]21
REMARK SMILES IDX 3 1 4 2 5 3 6 4 7 5 8 6 9 7 10 8 20 9 19 10 18 11 17 12
REMARK SMILES IDX 11 13 12 14 13 15 14 16 16 17 2 18 1 19 15 20
REMARK H PARENT 15 21
ROOT
ATOM      1  C   UNL     1       3.588   0.160   0.539  1.00  0.00     0.122 A 
ATOM      2  C   UNL     1       3.538  -0.492  -0.707  1.00  0.00     0.047 A 
ATOM      3  C   UNL     1       2.327  -0.626  -1.400  1.00  0.00     0.012 A 
ATOM      4  C   UNL     1       1.186  -0.093  -0.831  1.00  0.00     0.005 A 
ATOM      5  C   UNL     1       1.241   0.558   0.392  1.00  0.00     0.127 A 
ATOM      6  C   UNL     1       2.419   0.687   1.096  1.00  0.00     0.093 A 
ATOM      7  O   UNL     1       0.024   1.018   0.825  1.00  0.00    -0.484 OA
ATOM      8  C   UNL     1      -0.819   0.932  -0.356  1.00  0.00     0.218 C 
ATOM      9  C   UNL     1      -0.222  -0.126  -1.299  1.00  0.00     0.106 C 
ATOM     10  C   UNL     1      -0.888  -1.474  -1.067  1.00  0.00     0.242 C 
ATOM     11  O   UNL     1      -2.299  -1.396  -1.294  1.00  0.00    -0.492 OA
ATOM     12  C   UNL     1      -2.908  -0.481  -0.474  1.00  0.00     0.129 A 
ATOM     13  C   UNL     1      -2.244   0.643   0.033  1.00  0.00     0.035 A 
ATOM     14  C   UNL     1      -2.943   1.524   0.871  1.00  0.00     0.015 A 
ATOM     15  C   UNL     1      -4.285   1.291   1.176  1.00  0.00     0.047 A 
ATOM     16  C   UNL     1      -4.931   0.184   0.641  1.00  0.00     0.119 A 
ATOM     17  C   UNL     1      -4.255  -0.705  -0.189  1.00  0.00     0.093 A 
ENDROOT
BRANCH   1  18
ATOM     18  O   UNL     1       4.711   0.340   1.301  1.00  0.00    -0.497 OA
ATOM     19  C   UNL     1       5.931  -0.178   0.787  1.00  0.00     0.278 C 
ENDBRANCH   1  18
BRANCH  16  20
ATOM     20  O   UNL     1      -6.246   0.001   0.957  1.00  0.00    -0.508 OA
ATOM     21  H   UNL     1      -6.556  -0.812   0.525  1.00  0.00     0.293 HD
ENDBRANCH  16  20
TORSDOF 2
