REMARK SMILES CC1(C)C=Cc2c(cc(O)c3c2OC(c2ccccc2)CC3=O)O1
REMARK SMILES IDX 23 1 22 2 21 3 14 4 13 5 12 6 11 7 9 8 8 9 7 10 6 11 5 12
REMARK SMILES IDX 4 13 2 14 24 15 1 16 3 17 15 18 16 19 20 20 17 21 19 22
REMARK SMILES IDX 18 23 10 24
REMARK H PARENT 10 25
ROOT
ATOM      1  O   UNL     1      -1.433  -3.595  -1.701  1.00  0.00    -0.294 OA
ATOM      2  C   UNL     1      -1.330  -2.468  -1.221  1.00  0.00     0.174 C 
ATOM      3  C   UNL     1      -2.514  -1.589  -0.947  1.00  0.00     0.131 C 
ATOM      4  C   UNL     1      -2.168  -0.695   0.232  1.00  0.00     0.211 C 
ATOM      5  O   UNL     1      -1.022   0.116  -0.072  1.00  0.00    -0.484 OA
ATOM      6  C   UNL     1       0.095  -0.619  -0.397  1.00  0.00     0.145 A 
ATOM      7  C   UNL     1       0.007  -1.903  -0.948  1.00  0.00     0.102 A 
ATOM      8  C   UNL     1       1.169  -2.612  -1.260  1.00  0.00     0.133 A 
ATOM      9  C   UNL     1       2.416  -2.040  -1.036  1.00  0.00     0.094 A 
ATOM     10  C   UNL     1       2.509  -0.750  -0.509  1.00  0.00     0.135 A 
ATOM     11  C   UNL     1       1.354  -0.027  -0.189  1.00  0.00     0.060 A 
ATOM     12  C   UNL     1       1.493   1.315   0.366  1.00  0.00     0.015 C 
ATOM     13  C   UNL     1       2.722   1.814   0.523  1.00  0.00     0.021 C 
ATOM     14  C   UNL     1       3.978   1.060   0.158  1.00  0.00     0.122 C 
ATOM     15  O   UNL     1       3.780  -0.280  -0.336  1.00  0.00    -0.483 OA
ATOM     16  C   UNL     1       4.869   0.932   1.399  1.00  0.00     0.061 C 
ATOM     17  C   UNL     1       4.728   1.823  -0.940  1.00  0.00     0.061 C 
ENDROOT
BRANCH   4  18
ATOM     18  C   UNL     1      -3.334   0.213   0.574  1.00  0.00    -0.007 A 
ATOM     19  C   UNL     1      -3.582   1.389  -0.152  1.00  0.00     0.007 A 
ATOM     20  C   UNL     1      -4.212  -0.134   1.612  1.00  0.00     0.007 A 
ATOM     21  C   UNL     1      -4.674   2.201   0.160  1.00  0.00     0.000 A 
ATOM     22  C   UNL     1      -5.304   0.679   1.922  1.00  0.00     0.000 A 
ATOM     23  C   UNL     1      -5.534   1.846   1.197  1.00  0.00     0.000 A 
ENDBRANCH   4  18
BRANCH   8  24
ATOM     24  O   UNL     1       1.156  -3.871  -1.796  1.00  0.00    -0.507 OA
ATOM     25  H   UNL     1       0.219  -4.144  -1.923  1.00  0.00     0.293 HD
ENDBRANCH   8  24
TORSDOF 2
