REMARK SMILES CC(C)=CCc1c(O)ccc2c1O[C@H]1c3ccc(O)cc3OC[C@@H]21
REMARK SMILES IDX 6 1 7 2 9 3 10 4 11 5 12 6 13 7 14 8 24 9 23 10 22 11 21 12
REMARK SMILES IDX 15 13 16 14 17 15 18 16 20 17 5 18 4 19 2 20 1 21 3 22 8 23
REMARK SMILES IDX 19 25
REMARK H PARENT 8 24 19 26
ROOT
ATOM      1  C   UNL     1      -1.545  -1.866  -0.126  1.00  0.00     0.040 A 
ATOM      2  C   UNL     1      -2.159  -2.859  -0.904  1.00  0.00     0.122 A 
ATOM      3  C   UNL     1      -1.756  -3.115  -2.226  1.00  0.00     0.047 A 
ATOM      4  C   UNL     1      -0.731  -2.377  -2.818  1.00  0.00     0.012 A 
ATOM      5  C   UNL     1      -0.137  -1.383  -2.064  1.00  0.00     0.005 A 
ATOM      6  C   UNL     1      -0.544  -1.135  -0.757  1.00  0.00     0.131 A 
ATOM      7  O   UNL     1       0.171  -0.120  -0.161  1.00  0.00    -0.484 OA
ATOM      8  C   UNL     1       0.832   0.542  -1.271  1.00  0.00     0.218 C 
ATOM      9  C   UNL     1       0.986  -0.476  -2.410  1.00  0.00     0.106 C 
ATOM     10  C   UNL     1       2.343  -1.156  -2.325  1.00  0.00     0.242 C 
ATOM     11  O   UNL     1       3.406  -0.201  -2.415  1.00  0.00    -0.492 OA
ATOM     12  C   UNL     1       3.342   0.748  -1.428  1.00  0.00     0.129 A 
ATOM     13  C   UNL     1       2.141   1.130  -0.820  1.00  0.00     0.035 A 
ATOM     14  C   UNL     1       2.170   2.106   0.188  1.00  0.00     0.015 A 
ATOM     15  C   UNL     1       3.377   2.697   0.563  1.00  0.00     0.047 A 
ATOM     16  C   UNL     1       4.554   2.321  -0.073  1.00  0.00     0.119 A 
ATOM     17  C   UNL     1       4.548   1.352  -1.071  1.00  0.00     0.093 A 
ENDROOT
BRANCH   1  18
ATOM     18  C   UNL     1      -1.929  -1.547   1.294  1.00  0.00     0.070 C 
BRANCH  18  19
ATOM     19  C   UNL     1      -3.070  -0.566   1.372  1.00  0.00    -0.023 C 
ATOM     20  C   UNL     1      -3.046   0.702   1.831  1.00  0.00    -0.080 C 
ATOM     21  C   UNL     1      -4.300   1.539   1.834  1.00  0.00     0.039 C 
ATOM     22  C   UNL     1      -1.831   1.417   2.356  1.00  0.00     0.039 C 
ENDBRANCH  18  19
ENDBRANCH   1  18
BRANCH   2  23
ATOM     23  O   UNL     1      -3.182  -3.643  -0.446  1.00  0.00    -0.508 OA
ATOM     24  H   UNL     1      -3.477  -3.322   0.420  1.00  0.00     0.293 HD
ENDBRANCH   2  23
BRANCH  16  25
ATOM     25  O   UNL     1       5.709   2.932   0.317  1.00  0.00    -0.508 OA
ATOM     26  H   UNL     1       6.443   2.565  -0.203  1.00  0.00     0.293 HD
ENDBRANCH  16  25
TORSDOF 4
