REMARK SMILES O=C1C[C@@H](c2ccccc2)Oc2cc(O)cc(O)c21
REMARK SMILES IDX 14 1 13 2 12 3 11 4 4 5 3 6 2 7 1 8 19 9 17 10 16 11 15 12
REMARK SMILES IDX 18 14 5 16 6 17 10 18 7 19 9 20 8 21
REMARK H PARENT 15 13 18 15
ROOT
ATOM      1  C   UNL     1       3.571   1.159   1.390  1.00  0.00     0.123 A 
ATOM      2  C   UNL     1       2.181   1.240   1.397  1.00  0.00     0.093 A 
ATOM      3  C   UNL     1       1.442   0.372   0.592  1.00  0.00     0.138 A 
ATOM      4  O   UNL     1       0.079   0.508   0.639  1.00  0.00    -0.484 OA
ATOM      5  C   UNL     1      -0.576   0.009  -0.540  1.00  0.00     0.211 C 
ATOM      6  C   UNL     1      -0.215  -1.449  -0.787  1.00  0.00     0.131 C 
ATOM      7  C   UNL     1       1.273  -1.537  -0.962  1.00  0.00     0.174 C 
ATOM      8  O   UNL     1       1.816  -2.383  -1.669  1.00  0.00    -0.294 OA
ATOM      9  C   UNL     1       2.094  -0.589  -0.185  1.00  0.00     0.102 A 
ATOM     10  C   UNL     1       3.491  -0.658  -0.184  1.00  0.00     0.133 A 
ATOM     11  C   UNL     1       4.231   0.221   0.602  1.00  0.00     0.093 A 
ENDROOT
BRANCH   1  12
ATOM     12  O   UNL     1       4.332   1.994   2.153  1.00  0.00    -0.508 OA
ATOM     13  H   UNL     1       3.749   2.588   2.655  1.00  0.00     0.293 HD
ENDBRANCH   1  12
BRANCH  10  14
ATOM     14  O   UNL     1       4.193  -1.571  -0.923  1.00  0.00    -0.507 OA
ATOM     15  H   UNL     1       3.549  -2.134  -1.410  1.00  0.00     0.293 HD
ENDBRANCH  10  14
BRANCH   5  16
ATOM     16  C   UNL     1      -2.075   0.165  -0.370  1.00  0.00    -0.007 A 
ATOM     17  C   UNL     1      -2.708  -0.131   0.848  1.00  0.00     0.007 A 
ATOM     18  C   UNL     1      -2.865   0.578  -1.455  1.00  0.00     0.007 A 
ATOM     19  C   UNL     1      -4.092  -0.006   0.980  1.00  0.00     0.000 A 
ATOM     20  C   UNL     1      -4.249   0.702  -1.320  1.00  0.00     0.000 A 
ATOM     21  C   UNL     1      -4.861   0.410  -0.103  1.00  0.00     0.000 A 
ENDBRANCH   5  16
TORSDOF 3
