REMARK SMILES CC(C)=CCc1cc([C@@H]2CC(=O)c3cc(CC=C(C)C)c(O)c(CC=C(C)C)c3O2)ccc1O
REMARK SMILES IDX 23 1 29 2 30 3 9 4 10 5 11 6 12 7 13 8 14 9 15 10 21 11
REMARK SMILES IDX 24 12 25 13 26 14 27 15 28 16 22 17 16 19 17 20 18 21 19 22
REMARK SMILES IDX 20 23 8 24 31 25 7 26 32 27 6 28 33 29 5 30 4 31 2 32 1 33
REMARK SMILES IDX 3 34 34 35
REMARK H PARENT 22 18 34 36
ROOT
ATOM      1  C   UNL     1      -1.927   0.396   0.075  1.00  0.00     0.041 A 
ATOM      2  C   UNL     1      -0.707   0.172   0.736  1.00  0.00     0.138 A 
ATOM      3  O   UNL     1       0.421   0.750   0.206  1.00  0.00    -0.484 OA
ATOM      4  C   UNL     1       1.462   0.953   1.174  1.00  0.00     0.211 C 
ATOM      5  C   UNL     1       1.857  -0.367   1.816  1.00  0.00     0.131 C 
ATOM      6  C   UNL     1       0.644  -0.924   2.503  1.00  0.00     0.170 C 
ATOM      7  O   UNL     1       0.720  -1.619   3.512  1.00  0.00    -0.294 OA
ATOM      8  C   UNL     1      -0.661  -0.641   1.870  1.00  0.00     0.061 A 
ATOM      9  C   UNL     1      -1.829  -1.204   2.388  1.00  0.00     0.023 A 
ATOM     10  C   UNL     1      -3.069  -0.970   1.772  1.00  0.00    -0.001 A 
ATOM     11  C   UNL     1      -3.098  -0.184   0.606  1.00  0.00     0.126 A 
ENDROOT
BRANCH   1  12
ATOM     12  C   UNL     1      -1.979   1.273  -1.162  1.00  0.00     0.070 C 
BRANCH  12  13
ATOM     13  C   UNL     1      -1.974   2.744  -0.829  1.00  0.00    -0.023 C 
ATOM     14  C   UNL     1      -2.974   3.637  -0.963  1.00  0.00    -0.080 C 
ATOM     15  C   UNL     1      -2.765   5.081  -0.586  1.00  0.00     0.039 C 
ATOM     16  C   UNL     1      -4.355   3.325  -1.466  1.00  0.00     0.039 C 
ENDBRANCH  12  13
ENDBRANCH   1  12
BRANCH  11  17
ATOM     17  O   UNL     1      -4.266   0.049  -0.069  1.00  0.00    -0.507 OA
ATOM     18  H   UNL     1      -4.974  -0.515   0.275  1.00  0.00     0.293 HD
ENDBRANCH  11  17
BRANCH  10  19
ATOM     19  C   UNL     1      -4.296  -1.607   2.387  1.00  0.00     0.066 C 
BRANCH  19  20
ATOM     20  C   UNL     1      -4.601  -2.952   1.785  1.00  0.00    -0.023 C 
ATOM     21  C   UNL     1      -4.493  -4.165   2.364  1.00  0.00    -0.080 C 
ATOM     22  C   UNL     1      -4.863  -5.412   1.603  1.00  0.00     0.039 C 
ATOM     23  C   UNL     1      -3.999  -4.425   3.761  1.00  0.00     0.039 C 
ENDBRANCH  19  20
ENDBRANCH  10  19
BRANCH   4  24
ATOM     24  C   UNL     1       2.653   1.590   0.482  1.00  0.00    -0.007 A 
ATOM     25  C   UNL     1       3.387   2.595   1.127  1.00  0.00     0.011 A 
ATOM     26  C   UNL     1       3.067   1.166  -0.792  1.00  0.00     0.015 A 
ATOM     27  C   UNL     1       4.505   3.163   0.513  1.00  0.00     0.047 A 
ATOM     28  C   UNL     1       4.186   1.735  -1.426  1.00  0.00    -0.002 A 
ATOM     29  C   UNL     1       4.899   2.730  -0.752  1.00  0.00     0.119 A 
BRANCH  28  30
ATOM     30  C   UNL     1       4.600   1.233  -2.790  1.00  0.00     0.066 C 
BRANCH  30  31
ATOM     31  C   UNL     1       5.443  -0.012  -2.703  1.00  0.00    -0.023 C 
ATOM     32  C   UNL     1       5.122  -1.270  -3.067  1.00  0.00    -0.080 C 
ATOM     33  C   UNL     1       6.121  -2.387  -2.919  1.00  0.00     0.039 C 
ATOM     34  C   UNL     1       3.794  -1.700  -3.627  1.00  0.00     0.039 C 
ENDBRANCH  30  31
ENDBRANCH  28  30
BRANCH  29  35
ATOM     35  O   UNL     1       6.000   3.278  -1.348  1.00  0.00    -0.508 OA
ATOM     36  H   UNL     1       6.377   3.946  -0.754  1.00  0.00     0.293 HD
ENDBRANCH  29  35
ENDBRANCH   4  24
TORSDOF 9
