REMARK SMILES CC(C)=CCc1cc([C@@H]2CC(=O)c3c(O)cc(O)cc3O2)cc2c1OC(C)(C)C=C2
REMARK SMILES IDX 6 1 7 2 8 3 22 4 23 5 24 6 25 7 26 8 27 9 28 10 29 11 30 12
REMARK SMILES IDX 5 13 4 14 2 15 1 16 3 17 9 18 10 19 21 20 11 21 20 22 12 23
REMARK SMILES IDX 13 24 19 25 14 26 17 27 16 28 15 29 18 31
REMARK H PARENT 15 30 18 32
ROOT
ATOM      1  C   UNL     1      -1.645   0.235   0.985  1.00  0.00    -0.001 A 
ATOM      2  C   UNL     1      -0.386   0.775   0.668  1.00  0.00     0.015 A 
ATOM      3  C   UNL     1       0.740  -0.047   0.512  1.00  0.00    -0.006 A 
ATOM      4  C   UNL     1       0.586  -1.433   0.665  1.00  0.00     0.019 A 
ATOM      5  C   UNL     1      -0.663  -1.989   0.968  1.00  0.00     0.017 A 
ATOM      6  C   UNL     1      -1.777  -1.157   1.120  1.00  0.00     0.131 A 
ATOM      7  O   UNL     1      -3.024  -1.635   1.420  1.00  0.00    -0.483 OA
ATOM      8  C   UNL     1      -3.261  -3.056   1.394  1.00  0.00     0.122 C 
ATOM      9  C   UNL     1      -4.153  -3.337   0.179  1.00  0.00     0.061 C 
ATOM     10  C   UNL     1      -4.029  -3.377   2.682  1.00  0.00     0.061 C 
ATOM     11  C   UNL     1      -2.025  -3.922   1.325  1.00  0.00     0.021 C 
ATOM     12  C   UNL     1      -0.800  -3.428   1.129  1.00  0.00     0.012 C 
ENDROOT
BRANCH   1  13
ATOM     13  C   UNL     1      -2.831   1.164   1.125  1.00  0.00     0.066 C 
BRANCH  13  14
ATOM     14  C   UNL     1      -3.511   1.413  -0.195  1.00  0.00    -0.023 C 
ATOM     15  C   UNL     1      -3.556   2.552  -0.915  1.00  0.00    -0.080 C 
ATOM     16  C   UNL     1      -4.315   2.604  -2.216  1.00  0.00     0.039 C 
ATOM     17  C   UNL     1      -2.885   3.845  -0.541  1.00  0.00     0.039 C 
ENDBRANCH  13  14
ENDBRANCH   1  13
BRANCH   3  18
ATOM     18  C   UNL     1       2.077   0.566   0.139  1.00  0.00     0.211 C 
ATOM     19  C   UNL     1       2.282   0.517  -1.369  1.00  0.00     0.131 C 
ATOM     20  O   UNL     1       3.125  -0.143   0.822  1.00  0.00    -0.484 OA
ATOM     21  C   UNL     1       3.608   1.147  -1.681  1.00  0.00     0.174 C 
ATOM     22  C   UNL     1       4.376   0.320   0.511  1.00  0.00     0.138 A 
ATOM     23  O   UNL     1       3.840   1.736  -2.735  1.00  0.00    -0.294 OA
ATOM     24  C   UNL     1       4.679   0.978  -0.683  1.00  0.00     0.102 A 
ATOM     25  C   UNL     1       5.382   0.080   1.446  1.00  0.00     0.093 A 
ATOM     26  C   UNL     1       5.983   1.426  -0.923  1.00  0.00     0.133 A 
ATOM     27  C   UNL     1       6.676   0.529   1.194  1.00  0.00     0.123 A 
ATOM     28  C   UNL     1       6.986   1.207   0.018  1.00  0.00     0.093 A 
BRANCH  26  29
ATOM     29  O   UNL     1       6.347   2.080  -2.069  1.00  0.00    -0.507 OA
ATOM     30  H   UNL     1       5.554   2.150  -2.648  1.00  0.00     0.293 HD
ENDBRANCH  26  29
BRANCH  27  31
ATOM     31  O   UNL     1       7.626   0.283   2.141  1.00  0.00    -0.508 OA
ATOM     32  H   UNL     1       8.476   0.644   1.835  1.00  0.00     0.293 HD
ENDBRANCH  27  31
ENDBRANCH   3  18
TORSDOF 5
