REMARK SMILES COc1ccc(-c2cc(=O)c3c(OC)c(OC)c(OC)cc3o2)cc1
REMARK SMILES IDX 7 1 8 2 9 3 10 4 11 5 22 6 23 7 21 8 18 9 15 10 12 11 6 12
REMARK SMILES IDX 3 13 4 14 25 15 5 16 24 17 2 18 1 19 13 20 14 21 19 22 20 23
REMARK SMILES IDX 16 24 17 25
REMARK H PARENT
ROOT
ATOM      1  C   UNL     1       1.321  -0.327  -0.146  1.00  0.00     0.138 C 
ATOM      2  C   UNL     1       1.139  -1.085  -1.234  1.00  0.00     0.100 C 
ATOM      3  C   UNL     1      -0.220  -1.277  -1.769  1.00  0.00     0.197 C 
ATOM      4  O   UNL     1      -0.362  -1.892  -2.818  1.00  0.00    -0.289 OA
ATOM      5  C   UNL     1      -1.328  -0.673  -0.997  1.00  0.00     0.111 A 
ATOM      6  C   UNL     1      -0.997   0.089   0.123  1.00  0.00     0.146 A 
ATOM      7  O   UNL     1       0.295   0.288   0.547  1.00  0.00    -0.456 OA
ATOM      8  C   UNL     1      -1.990   0.694   0.901  1.00  0.00     0.098 A 
ATOM      9  C   UNL     1      -3.340   0.538   0.577  1.00  0.00     0.168 A 
ATOM     10  C   UNL     1      -3.681  -0.212  -0.564  1.00  0.00     0.204 A 
ATOM     11  C   UNL     1      -2.677  -0.822  -1.343  1.00  0.00     0.179 A 
ENDROOT
BRANCH   1  12
ATOM     12  C   UNL     1       2.661  -0.095   0.426  1.00  0.00     0.018 A 
ATOM     13  C   UNL     1       5.209   0.372   1.554  1.00  0.00     0.118 A 
ATOM     14  C   UNL     1       5.032   0.429   0.173  1.00  0.00     0.047 A 
ATOM     15  C   UNL     1       4.112   0.088   2.369  1.00  0.00     0.047 A 
ATOM     16  C   UNL     1       3.767   0.200  -0.386  1.00  0.00     0.016 A 
ATOM     17  C   UNL     1       2.849  -0.140   1.813  1.00  0.00     0.016 A 
BRANCH  13  18
ATOM     18  O   UNL     1       6.383   0.574   2.225  1.00  0.00    -0.497 OA
ATOM     19  C   UNL     1       7.535   0.849   1.438  1.00  0.00     0.278 C 
ENDBRANCH  13  18
ENDBRANCH   1  12
BRANCH  11  20
ATOM     20  O   UNL     1      -3.048  -1.634  -2.387  1.00  0.00    -0.492 OA
ATOM     21  C   UNL     1      -3.227  -0.874  -3.581  1.00  0.00     0.278 C 
ENDBRANCH  11  20
BRANCH   9  22
ATOM     22  O   UNL     1      -4.369   1.059   1.316  1.00  0.00    -0.493 OA
ATOM     23  C   UNL     1      -4.055   1.642   2.574  1.00  0.00     0.278 C 
ENDBRANCH   9  22
BRANCH  10  24
ATOM     24  O   UNL     1      -4.983  -0.466  -0.931  1.00  0.00    -0.490 OA
ATOM     25  C   UNL     1      -5.771   0.710  -1.103  1.00  0.00     0.278 C 
ENDBRANCH  10  24
TORSDOF 5
