REMARK SMILES COc1c(Cc2cc(Cc3ccccc3O)ccc2O)c(O)c2c(c1Cc1cc(Cc3ccccc3O)ccc1O)O[C@H](c1ccccc1)CC2=O
REMARK SMILES IDX 3 1 4 2 21 3 23 4 24 5 25 6 42 7 43 8 50 9 51 10 52 11 2 12
REMARK SMILES IDX 1 13 5 14 6 15 7 16 19 17 8 18 18 19 17 20 20 21 9 23 10 24
REMARK SMILES IDX 11 25 15 26 12 27 14 28 13 29 16 30 26 32 27 33 28 34 40 35
REMARK SMILES IDX 29 36 39 37 38 38 41 39 30 41 31 42 32 43 36 44 33 45 35 46
REMARK SMILES IDX 34 47 37 48 22 50 44 52 45 53 49 54 46 55 48 56 47 57
REMARK H PARENT 20 22 16 31 41 40 37 49 22 51
ROOT
ATOM      1  C   UNL     1       0.434  -0.640   0.593  1.00  0.00     0.133 A 
ATOM      2  C   UNL     1      -0.620  -0.819   1.514  1.00  0.00     0.042 A 
ATOM      3  C   UNL     1      -1.307   0.319   1.962  1.00  0.00     0.137 A 
ATOM      4  C   UNL     1      -1.020   1.581   1.431  1.00  0.00     0.102 A 
ATOM      5  C   UNL     1      -0.061   1.720   0.422  1.00  0.00     0.142 A 
ATOM      6  C   UNL     1       0.702   0.615   0.002  1.00  0.00     0.042 A 
ATOM      7  O   UNL     1       0.185   2.927  -0.185  1.00  0.00    -0.484 OA
ATOM      8  C   UNL     1      -0.919   3.840  -0.138  1.00  0.00     0.211 C 
ATOM      9  C   UNL     1      -1.317   4.103   1.304  1.00  0.00     0.131 C 
ATOM     10  C   UNL     1      -1.719   2.793   1.911  1.00  0.00     0.174 C 
ATOM     11  O   UNL     1      -2.556   2.708   2.808  1.00  0.00    -0.294 OA
ENDROOT
BRANCH   1  12
ATOM     12  O   UNL     1       1.156  -1.740   0.189  1.00  0.00    -0.496 OA
ATOM     13  C   UNL     1       2.222  -1.997   1.118  1.00  0.00     0.278 C 
ENDBRANCH   1  12
BRANCH   2  14
ATOM     14  C   UNL     1      -1.094  -2.205   1.913  1.00  0.00     0.082 C 
BRANCH  14  15
ATOM     15  C   UNL     1      -2.144  -2.752   0.967  1.00  0.00    -0.001 A 
ATOM     16  C   UNL     1      -3.493  -2.429   1.199  1.00  0.00     0.012 A 
ATOM     17  C   UNL     1      -1.842  -3.535  -0.151  1.00  0.00     0.119 A 
ATOM     18  C   UNL     1      -4.514  -2.849   0.332  1.00  0.00    -0.043 A 
ATOM     19  C   UNL     1      -2.849  -4.018  -0.984  1.00  0.00     0.047 A 
ATOM     20  C   UNL     1      -4.180  -3.675  -0.747  1.00  0.00     0.008 A 
BRANCH  17  21
ATOM     21  O   UNL     1      -0.563  -3.866  -0.500  1.00  0.00    -0.508 OA
ATOM     22  H   UNL     1       0.020  -3.127  -0.235  1.00  0.00     0.293 HD
ENDBRANCH  17  21
BRANCH  18  23
ATOM     23  C   UNL     1      -5.952  -2.434   0.560  1.00  0.00     0.075 C 
BRANCH  23  24
ATOM     24  C   UNL     1      -6.144  -0.977   0.932  1.00  0.00    -0.002 A 
ATOM     25  C   UNL     1      -6.641  -0.662   2.210  1.00  0.00     0.008 A 
ATOM     26  C   UNL     1      -5.861   0.083   0.058  1.00  0.00     0.119 A 
ATOM     27  C   UNL     1      -6.848   0.665   2.594  1.00  0.00     0.001 A 
ATOM     28  C   UNL     1      -6.082   1.407   0.435  1.00  0.00     0.046 A 
ATOM     29  C   UNL     1      -6.571   1.699   1.705  1.00  0.00     0.004 A 
BRANCH  26  30
ATOM     30  O   UNL     1      -5.354  -0.103  -1.197  1.00  0.00    -0.508 OA
ATOM     31  H   UNL     1      -4.874  -0.948  -1.212  1.00  0.00     0.293 HD
ENDBRANCH  26  30
ENDBRANCH  23  24
ENDBRANCH  18  23
ENDBRANCH  14  15
ENDBRANCH   2  14
BRANCH   6  32
ATOM     32  C   UNL     1       1.710   0.767  -1.128  1.00  0.00     0.082 C 
BRANCH  32  33
ATOM     33  C   UNL     1       3.170   0.601  -0.770  1.00  0.00    -0.001 A 
ATOM     34  C   UNL     1       3.899  -0.453  -1.350  1.00  0.00     0.012 A 
ATOM     35  C   UNL     1       3.843   1.468   0.096  1.00  0.00     0.119 A 
ATOM     36  C   UNL     1       5.252  -0.666  -1.049  1.00  0.00    -0.043 A 
ATOM     37  C   UNL     1       5.191   1.276   0.402  1.00  0.00     0.047 A 
ATOM     38  C   UNL     1       5.891   0.208  -0.163  1.00  0.00     0.008 A 
BRANCH  35  39
ATOM     39  O   UNL     1       3.170   2.521   0.647  1.00  0.00    -0.508 OA
ATOM     40  H   UNL     1       3.781   3.022   1.210  1.00  0.00     0.293 HD
ENDBRANCH  35  39
BRANCH  36  41
ATOM     41  C   UNL     1       5.989  -1.843  -1.651  1.00  0.00     0.075 C 
BRANCH  41  42
ATOM     42  C   UNL     1       5.683  -3.156  -0.964  1.00  0.00    -0.002 A 
ATOM     43  C   UNL     1       6.346  -3.487   0.229  1.00  0.00     0.008 A 
ATOM     44  C   UNL     1       4.725  -4.047  -1.462  1.00  0.00     0.119 A 
ATOM     45  C   UNL     1       6.059  -4.679   0.898  1.00  0.00     0.001 A 
ATOM     46  C   UNL     1       4.434  -5.239  -0.797  1.00  0.00     0.046 A 
ATOM     47  C   UNL     1       5.104  -5.554   0.384  1.00  0.00     0.004 A 
BRANCH  44  48
ATOM     48  O   UNL     1       4.060  -3.734  -2.614  1.00  0.00    -0.508 OA
ATOM     49  H   UNL     1       3.389  -4.416  -2.783  1.00  0.00     0.293 HD
ENDBRANCH  44  48
ENDBRANCH  41  42
ENDBRANCH  36  41
ENDBRANCH  32  33
ENDBRANCH   6  32
BRANCH   3  50
ATOM     50  O   UNL     1      -2.272   0.148   2.925  1.00  0.00    -0.507 OA
ATOM     51  H   UNL     1      -2.676   1.023   3.124  1.00  0.00     0.293 HD
ENDBRANCH   3  50
BRANCH   8  52
ATOM     52  C   UNL     1      -0.532   5.136  -0.828  1.00  0.00    -0.007 A 
ATOM     53  C   UNL     1      -1.521   5.918  -1.448  1.00  0.00     0.007 A 
ATOM     54  C   UNL     1       0.793   5.598  -0.836  1.00  0.00     0.007 A 
ATOM     55  C   UNL     1      -1.190   7.125  -2.066  1.00  0.00     0.000 A 
ATOM     56  C   UNL     1       1.122   6.805  -1.457  1.00  0.00     0.000 A 
ATOM     57  C   UNL     1       0.131   7.567  -2.071  1.00  0.00     0.000 A 
ENDBRANCH   8  52
TORSDOF 15
