REMARK SMILES COc1ccc(C2CC(=O)c3c(O)cc(OCCC(C)CO)cc3O2)cc1O
REMARK SMILES IDX 17 1 18 2 19 3 20 4 21 5 22 6 16 8 15 9 23 10 14 11 24 12
REMARK SMILES IDX 12 13 25 14 11 15 7 16 9 17 8 18 10 19 13 20 6 22 5 23 26 24
REMARK SMILES IDX 4 25 27 26 3 27 28 28 2 30 1 31
REMARK H PARENT 22 7 13 21 28 29
ROOT
ATOM      1  C   UNL     1      -4.151   1.626  -0.119  1.00  0.00     0.230 C 
ENDROOT
BRANCH   1   2
ATOM      2  C   UNL     1      -4.865   1.045   1.103  1.00  0.00     0.047 C 
BRANCH   2   3
ATOM      3  C   UNL     1      -6.381   0.861   0.905  1.00  0.00     0.015 C 
ATOM      4  C   UNL     1      -7.003   0.366   2.216  1.00  0.00     0.010 C 
BRANCH   3   5
ATOM      5  C   UNL     1      -6.728  -0.094  -0.247  1.00  0.00     0.159 C 
BRANCH   5   6
ATOM      6  O   UNL     1      -6.003  -1.314  -0.152  1.00  0.00    -0.396 OA
ATOM      7  H   UNL     1      -6.376  -1.814   0.596  1.00  0.00     0.210 HD
ENDBRANCH   5   6
ENDBRANCH   3   5
ENDBRANCH   2   3
ENDBRANCH   1   2
BRANCH   1   8
ATOM      8  O   UNL     1      -2.747   1.736   0.128  1.00  0.00    -0.493 OA
BRANCH   8   9
ATOM      9  C   UNL     1      -1.949   0.662  -0.158  1.00  0.00     0.126 A 
ATOM     10  C   UNL     1      -0.582   0.897  -0.010  1.00  0.00     0.094 A 
ATOM     11  C   UNL     1      -2.381  -0.604  -0.558  1.00  0.00     0.093 A 
ATOM     12  C   UNL     1       0.347  -0.112  -0.272  1.00  0.00     0.138 A 
ATOM     13  C   UNL     1      -1.452  -1.624  -0.799  1.00  0.00     0.133 A 
ATOM     14  O   UNL     1       1.662   0.240  -0.103  1.00  0.00    -0.484 OA
ATOM     15  C   UNL     1      -0.081  -1.387  -0.654  1.00  0.00     0.102 A 
ATOM     16  C   UNL     1       2.569  -0.603  -0.830  1.00  0.00     0.211 C 
ATOM     17  C   UNL     1       0.957  -2.436  -0.845  1.00  0.00     0.174 C 
ATOM     18  C   UNL     1       2.358  -2.057  -0.451  1.00  0.00     0.131 C 
ATOM     19  O   UNL     1       0.710  -3.563  -1.259  1.00  0.00    -0.294 OA
BRANCH  13  20
ATOM     20  O   UNL     1      -1.919  -2.855  -1.165  1.00  0.00    -0.507 OA
ATOM     21  H   UNL     1      -2.890  -2.849  -1.210  1.00  0.00     0.293 HD
ENDBRANCH  13  20
BRANCH  16  22
ATOM     22  C   UNL     1       3.992  -0.172  -0.525  1.00  0.00    -0.003 A 
ATOM     23  C   UNL     1       4.969  -0.224  -1.531  1.00  0.00     0.011 A 
ATOM     24  C   UNL     1       4.373   0.246   0.758  1.00  0.00     0.057 A 
ATOM     25  C   UNL     1       6.295   0.143  -1.266  1.00  0.00     0.051 A 
ATOM     26  C   UNL     1       5.696   0.614   1.015  1.00  0.00     0.158 A 
ATOM     27  C   UNL     1       6.671   0.567   0.010  1.00  0.00     0.160 A 
BRANCH  26  28
ATOM     28  O   UNL     1       6.052   1.027   2.272  1.00  0.00    -0.504 OA
ATOM     29  H   UNL     1       5.262   1.047   2.834  1.00  0.00     0.293 HD
ENDBRANCH  26  28
BRANCH  27  30
ATOM     30  O   UNL     1       7.936   0.947   0.372  1.00  0.00    -0.493 OA
ATOM     31  C   UNL     1       8.944   0.907  -0.627  1.00  0.00     0.278 C 
ENDBRANCH  27  30
ENDBRANCH  16  22
ENDBRANCH   8   9
ENDBRANCH   1   8
TORSDOF 10
